 Entering Gaussian System, Link 0=g16
 Input=FEL_Cl_NH_Conformer_DFT_wB97XD_G631pd_Opt_VeryTight_Freq_Raman_Pol.gjf
 Output=FEL_Cl_NH_Conformer_DFT_wB97XD_G631pd_Opt_VeryTight_Freq_Raman_Pol.log
 Initial command:
 /opt/g16/l1.exe "/home/yarger/scratches/g16/Gau-362481.inp" -scrdir="/home/yarger/scratches/g16/"
 Entering Link 1 = /opt/g16/l1.exe PID=    362483.
  
 Copyright (c) 1988-2019, Gaussian, Inc.  All Rights Reserved.
  
 This is part of the Gaussian(R) 16 program.  It is based on
 the Gaussian(R) 09 system (copyright 2009, Gaussian, Inc.),
 the Gaussian(R) 03 system (copyright 2003, Gaussian, Inc.),
 the Gaussian(R) 98 system (copyright 1998, Gaussian, Inc.),
 the Gaussian(R) 94 system (copyright 1995, Gaussian, Inc.),
 the Gaussian 92(TM) system (copyright 1992, Gaussian, Inc.),
 the Gaussian 90(TM) system (copyright 1990, Gaussian, Inc.),
 the Gaussian 88(TM) system (copyright 1988, Gaussian, Inc.),
 the Gaussian 86(TM) system (copyright 1986, Carnegie Mellon
 University), and the Gaussian 82(TM) system (copyright 1983,
 Carnegie Mellon University). Gaussian is a federally registered
 trademark of Gaussian, Inc.
  
 This software contains proprietary and confidential information,
 including trade secrets, belonging to Gaussian, Inc.
  
 This software is provided under written license and may be
 used, copied, transmitted, or stored only in accord with that
 written license.
  
 The following legend is applicable only to US Government
 contracts under FAR:
  
                    RESTRICTED RIGHTS LEGEND
  
 Use, reproduction and disclosure by the US Government is
 subject to restrictions as set forth in subparagraphs (a)
 and (c) of the Commercial Computer Software - Restricted
 Rights clause in FAR 52.227-19.
  
 Gaussian, Inc.
 340 Quinnipiac St., Bldg. 40, Wallingford CT 06492
  
  
 ---------------------------------------------------------------
 Warning -- This program may not be used in any manner that
 competes with the business of Gaussian, Inc. or will provide
 assistance to any competitor of Gaussian, Inc.  The licensee
 of this program is prohibited from giving any competitor of
 Gaussian, Inc. access to this program.  By using this program,
 the user acknowledges that Gaussian, Inc. is engaged in the
 business of creating and licensing software in the field of
 computational chemistry and represents and warrants to the
 licensee that it is not a competitor of Gaussian, Inc. and that
 it will not use this program in any manner prohibited above.
 ---------------------------------------------------------------
  

 Cite this work as:
 Gaussian 16, Revision C.01,
 M. J. Frisch, G. W. Trucks, H. B. Schlegel, G. E. Scuseria, 
 M. A. Robb, J. R. Cheeseman, G. Scalmani, V. Barone, 
 G. A. Petersson, H. Nakatsuji, X. Li, M. Caricato, A. V. Marenich, 
 J. Bloino, B. G. Janesko, R. Gomperts, B. Mennucci, H. P. Hratchian, 
 J. V. Ortiz, A. F. Izmaylov, J. L. Sonnenberg, D. Williams-Young, 
 F. Ding, F. Lipparini, F. Egidi, J. Goings, B. Peng, A. Petrone, 
 T. Henderson, D. Ranasinghe, V. G. Zakrzewski, J. Gao, N. Rega, 
 G. Zheng, W. Liang, M. Hada, M. Ehara, K. Toyota, R. Fukuda, 
 J. Hasegawa, M. Ishida, T. Nakajima, Y. Honda, O. Kitao, H. Nakai, 
 T. Vreven, K. Throssell, J. A. Montgomery, Jr., J. E. Peralta, 
 F. Ogliaro, M. J. Bearpark, J. J. Heyd, E. N. Brothers, K. N. Kudin, 
 V. N. Staroverov, T. A. Keith, R. Kobayashi, J. Normand, 
 K. Raghavachari, A. P. Rendell, J. C. Burant, S. S. Iyengar, 
 J. Tomasi, M. Cossi, J. M. Millam, M. Klene, C. Adamo, R. Cammi, 
 J. W. Ochterski, R. L. Martin, K. Morokuma, O. Farkas, 
 J. B. Foresman, and D. J. Fox, Gaussian, Inc., Wallingford CT, 2019.
 
 ******************************************
 Gaussian 16:  ES64L-G16RevC.01  3-Jul-2019
                 3-Mar-2026 
 ******************************************
 %nprocshared=16
 Will use up to   16 processors via shared memory.
 %mem=16GB
 %chk=FEL_Cl_NH_Conformer_DFT_wB97XD_G631pd_Opt_VeryTight_Freq_Raman_Pol.chk
 ----------------------------------------------------------------------
 #p opt=verytight freq=raman wb97xd/6-31+g(d) geom=connectivity polar i
 nt=ultrafine scf=verytight
 ----------------------------------------------------------------------
 1/7=1,18=20,19=15,26=4,38=1,57=2/1,3;
 2/9=110,12=2,17=6,18=5,40=1/2;
 3/5=1,6=6,7=11,11=2,25=1,30=1,71=1,74=-58,75=-5/1,2,3;
 4//1;
 5/5=2,17=3,38=5,98=1/2;
 6/7=2,8=2,9=2,10=2,28=1/1;
 7//1,2,3,16;
 1/7=1,18=20,19=15,26=4/3(2);
 2/9=110/2;
 99//99;
 2/9=110/2;
 3/5=1,6=6,7=11,11=2,25=1,30=1,71=1,74=-58,75=-5/1,2,3;
 4/5=5,16=3,69=1/1;
 5/5=2,17=3,38=5,98=1/2;
 7//1,2,3,16;
 1/7=1,18=20,19=15,26=4/3(-5);
 2/9=110/2;
 6/7=2,8=2,9=2,10=2,19=2,28=1/1;
 99/9=1/99;
 Leave Link    1 at Tue Mar  3 15:01:55 2026, MaxMem=  2147483648 cpu:               1.1 elap:               0.1
 (Enter /opt/g16/l101.exe)
 ----------
 Felodipine
 ----------
 Symbolic Z-matrix:
 Charge =  0 Multiplicity = 1
 C                     0.57261   1.46691  -2.03417 
 C                     0.44864   0.85718  -0.77399 
 C                     0.66663   1.66664   0.34978 
 C                     0.99205   3.01775   0.21214 
 C                     1.10973   3.60093  -1.04265 
 C                     0.89664   2.81219  -2.17301 
 H                     0.40753   0.85742  -2.9082 
 H                     1.36215   4.64699  -1.12519 
 H                     0.98427   3.25053  -3.15713 
 C                     0.08367  -0.64795  -0.74884 
 C                     1.18753  -1.52605  -0.15919 
 C                    -1.27872  -0.92699  -0.11315 
 C                     1.01436  -2.17917   1.02493 
 C                    -1.38214  -1.59691   1.06937 
 C                    -2.40888  -0.46658  -0.91455 
 O                    -2.29301   0.00978  -2.05825 
 O                    -3.65741  -0.60167  -0.32578 
 C                     2.37404  -1.62842  -1.00134 
 O                     2.45955  -1.14016  -2.14186 
 O                     3.43563  -2.33457  -0.4524 
 C                    -4.81377  -0.1354   -1.12462 
 H                    -4.65263   0.91135  -1.37959 
 H                    -4.843    -0.70754  -2.05142 
 C                     4.63754  -2.44445  -1.28952 
 H                     5.33944  -3.01394  -0.69045 
 H                     4.40489  -2.96075  -2.21825 
 H                     5.02872  -1.4553   -1.51677 
 N                    -0.23237  -2.13409   1.63637 
 H                    -0.31882  -2.55924   2.54305 
 C                    -2.63502  -1.87105   1.86163 
 H                    -3.15736  -0.94755   2.09745 
 H                    -3.33321  -2.48437   1.29519 
 H                    -2.3965   -2.38772   2.79306 
 C                     2.02966  -3.00441   1.77407 
 H                     2.34497  -3.86673   1.18946 
 H                     2.92728  -2.42692   1.97938 
 H                     1.61561  -3.35914   2.71965 
 H                     0.00164  -0.90316  -1.80512 
 Cl                    0.53278   0.98152   2.03822 
 Cl                    1.27901   4.08563   1.66453 
 C                    -6.0512   -0.34228  -0.27473 
 H                    -6.93602  -0.00937  -0.82127 
 H                    -6.18272  -1.39495  -0.0233 
 H                    -5.9883    0.22887   0.6516 
 
 ITRead=  0  0  0  0  0  0  0  0  0  0  0  0  0  0  0  0  0  0  0  0
 ITRead=  0  0  0  0  0  0  0  0  0  0  0  0  0  0  0  0  0  0  0  0
 ITRead=  0  0  0  0
 MicOpt= -1 -1 -1 -1 -1 -1 -1 -1 -1 -1 -1 -1 -1 -1 -1 -1 -1 -1 -1 -1
 MicOpt= -1 -1 -1 -1 -1 -1 -1 -1 -1 -1 -1 -1 -1 -1 -1 -1 -1 -1 -1 -1
 MicOpt= -1 -1 -1 -1
 NAtoms=     44 NQM=       44 NQMF=       0 NMMI=      0 NMMIF=      0
                NMic=       0 NMicF=      0.
                    Isotopes and Nuclear Properties:
 (Nuclear quadrupole moments (NQMom) in fm**2, nuclear magnetic moments (NMagM)
  in nuclear magnetons)

  Atom         1           2           3           4           5           6           7           8           9          10
 IAtWgt=          12          12          12          12          12          12           1           1           1          12
 AtmWgt=  12.0000000  12.0000000  12.0000000  12.0000000  12.0000000  12.0000000   1.0078250   1.0078250   1.0078250  12.0000000
 NucSpn=           0           0           0           0           0           0           1           1           1           0
 AtZEff=  -0.0000000  -0.0000000  -0.0000000  -0.0000000  -0.0000000  -0.0000000  -0.0000000  -0.0000000  -0.0000000  -0.0000000
 NQMom=    0.0000000   0.0000000   0.0000000   0.0000000   0.0000000   0.0000000   0.0000000   0.0000000   0.0000000   0.0000000
 NMagM=    0.0000000   0.0000000   0.0000000   0.0000000   0.0000000   0.0000000   2.7928460   2.7928460   2.7928460   0.0000000
 AtZNuc=   6.0000000   6.0000000   6.0000000   6.0000000   6.0000000   6.0000000   1.0000000   1.0000000   1.0000000   6.0000000

  Atom        11          12          13          14          15          16          17          18          19          20
 IAtWgt=          12          12          12          12          12          16          16          12          16          16
 AtmWgt=  12.0000000  12.0000000  12.0000000  12.0000000  12.0000000  15.9949146  15.9949146  12.0000000  15.9949146  15.9949146
 NucSpn=           0           0           0           0           0           0           0           0           0           0
 AtZEff=  -0.0000000  -0.0000000  -0.0000000  -0.0000000  -0.0000000  -0.0000000  -0.0000000  -0.0000000  -0.0000000  -0.0000000
 NQMom=    0.0000000   0.0000000   0.0000000   0.0000000   0.0000000   0.0000000   0.0000000   0.0000000   0.0000000   0.0000000
 NMagM=    0.0000000   0.0000000   0.0000000   0.0000000   0.0000000   0.0000000   0.0000000   0.0000000   0.0000000   0.0000000
 AtZNuc=   6.0000000   6.0000000   6.0000000   6.0000000   6.0000000   8.0000000   8.0000000   6.0000000   8.0000000   8.0000000

  Atom        21          22          23          24          25          26          27          28          29          30
 IAtWgt=          12           1           1          12           1           1           1          14           1          12
 AtmWgt=  12.0000000   1.0078250   1.0078250  12.0000000   1.0078250   1.0078250   1.0078250  14.0030740   1.0078250  12.0000000
 NucSpn=           0           1           1           0           1           1           1           2           1           0
 AtZEff=  -0.0000000  -0.0000000  -0.0000000  -0.0000000  -0.0000000  -0.0000000  -0.0000000  -0.0000000  -0.0000000  -0.0000000
 NQMom=    0.0000000   0.0000000   0.0000000   0.0000000   0.0000000   0.0000000   0.0000000   2.0440000   0.0000000   0.0000000
 NMagM=    0.0000000   2.7928460   2.7928460   0.0000000   2.7928460   2.7928460   2.7928460   0.4037610   2.7928460   0.0000000
 AtZNuc=   6.0000000   1.0000000   1.0000000   6.0000000   1.0000000   1.0000000   1.0000000   7.0000000   1.0000000   6.0000000

  Atom        31          32          33          34          35          36          37          38          39          40
 IAtWgt=           1           1           1          12           1           1           1           1          35          35
 AtmWgt=   1.0078250   1.0078250   1.0078250  12.0000000   1.0078250   1.0078250   1.0078250   1.0078250  34.9688527  34.9688527
 NucSpn=           1           1           1           0           1           1           1           1           3           3
 AtZEff=  -0.0000000  -0.0000000  -0.0000000  -0.0000000  -0.0000000  -0.0000000  -0.0000000  -0.0000000  -0.0000000  -0.0000000
 NQMom=    0.0000000   0.0000000   0.0000000   0.0000000   0.0000000   0.0000000   0.0000000   0.0000000  -8.1650000  -8.1650000
 NMagM=    2.7928460   2.7928460   2.7928460   0.0000000   2.7928460   2.7928460   2.7928460   2.7928460   0.8218740   0.8218740
 AtZNuc=   1.0000000   1.0000000   1.0000000   6.0000000   1.0000000   1.0000000   1.0000000   1.0000000  17.0000000  17.0000000

  Atom        41          42          43          44
 IAtWgt=          12           1           1           1
 AtmWgt=  12.0000000   1.0078250   1.0078250   1.0078250
 NucSpn=           0           1           1           1
 AtZEff=  -0.0000000  -0.0000000  -0.0000000  -0.0000000
 NQMom=    0.0000000   0.0000000   0.0000000   0.0000000
 NMagM=    0.0000000   2.7928460   2.7928460   2.7928460
 AtZNuc=   6.0000000   1.0000000   1.0000000   1.0000000
 Leave Link  101 at Tue Mar  3 15:01:57 2026, MaxMem=  2147483648 cpu:              30.5 elap:               1.9
 (Enter /opt/g16/l103.exe)

 GradGradGradGradGradGradGradGradGradGradGradGradGradGradGradGradGradGrad
 Berny optimization.
 Initialization pass.
                           ----------------------------
                           !    Initial Parameters    !
                           ! (Angstroms and Degrees)  !
 --------------------------                            --------------------------
 ! Name  Definition              Value          Derivative Info.                !
 --------------------------------------------------------------------------------
 ! R1    R(1,2)                  1.4054         estimate D2E/DX2                !
 ! R2    R(1,6)                  1.3907         estimate D2E/DX2                !
 ! R3    R(1,7)                  1.0783         estimate D2E/DX2                !
 ! R4    R(2,3)                  1.402          estimate D2E/DX2                !
 ! R5    R(2,10)                 1.549          estimate D2E/DX2                !
 ! R6    R(3,4)                  1.3966         estimate D2E/DX2                !
 ! R7    R(3,39)                 1.8271         estimate D2E/DX2                !
 ! R8    R(4,5)                  1.3887         estimate D2E/DX2                !
 ! R9    R(4,40)                 1.8254         estimate D2E/DX2                !
 ! R10   R(5,6)                  1.3947         estimate D2E/DX2                !
 ! R11   R(5,8)                  1.0792         estimate D2E/DX2                !
 ! R12   R(6,9)                  1.0809         estimate D2E/DX2                !
 ! R13   R(10,11)                1.5288         estimate D2E/DX2                !
 ! R14   R(10,12)                1.5291         estimate D2E/DX2                !
 ! R15   R(10,38)                1.0898         estimate D2E/DX2                !
 ! R16   R(11,13)                1.3633         estimate D2E/DX2                !
 ! R17   R(11,18)                1.4586         estimate D2E/DX2                !
 ! R18   R(12,14)                1.363          estimate D2E/DX2                !
 ! R19   R(12,15)                1.46           estimate D2E/DX2                !
 ! R20   R(13,28)                1.3893         estimate D2E/DX2                !
 ! R21   R(13,34)                1.5077         estimate D2E/DX2                !
 ! R22   R(14,28)                1.39           estimate D2E/DX2                !
 ! R23   R(14,30)                1.5075         estimate D2E/DX2                !
 ! R24   R(15,16)                1.2443         estimate D2E/DX2                !
 ! R25   R(15,17)                1.387          estimate D2E/DX2                !
 ! R26   R(17,21)                1.4808         estimate D2E/DX2                !
 ! R27   R(18,19)                1.2436         estimate D2E/DX2                !
 ! R28   R(18,20)                1.3881         estimate D2E/DX2                !
 ! R29   R(20,24)                1.4688         estimate D2E/DX2                !
 ! R30   R(21,22)                1.0893         estimate D2E/DX2                !
 ! R31   R(21,23)                1.0896         estimate D2E/DX2                !
 ! R32   R(21,41)                1.5154         estimate D2E/DX2                !
 ! R33   R(24,25)                1.0844         estimate D2E/DX2                !
 ! R34   R(24,26)                1.0878         estimate D2E/DX2                !
 ! R35   R(24,27)                1.0877         estimate D2E/DX2                !
 ! R36   R(28,29)                1.0051         estimate D2E/DX2                !
 ! R37   R(30,31)                1.0869         estimate D2E/DX2                !
 ! R38   R(30,32)                1.0883         estimate D2E/DX2                !
 ! R39   R(30,33)                1.0915         estimate D2E/DX2                !
 ! R40   R(34,35)                1.0885         estimate D2E/DX2                !
 ! R41   R(34,36)                1.0869         estimate D2E/DX2                !
 ! R42   R(34,37)                1.0915         estimate D2E/DX2                !
 ! R43   R(41,42)                1.092          estimate D2E/DX2                !
 ! R44   R(41,43)                1.0902         estimate D2E/DX2                !
 ! R45   R(41,44)                1.0901         estimate D2E/DX2                !
 ! A1    A(2,1,6)              121.9881         estimate D2E/DX2                !
 ! A2    A(2,1,7)              117.9095         estimate D2E/DX2                !
 ! A3    A(6,1,7)              120.1023         estimate D2E/DX2                !
 ! A4    A(1,2,3)              117.0337         estimate D2E/DX2                !
 ! A5    A(1,2,10)             117.1881         estimate D2E/DX2                !
 ! A6    A(3,2,10)             125.7782         estimate D2E/DX2                !
 ! A7    A(2,3,4)              121.0515         estimate D2E/DX2                !
 ! A8    A(2,3,39)             120.8534         estimate D2E/DX2                !
 ! A9    A(4,3,39)             118.0951         estimate D2E/DX2                !
 ! A10   A(3,4,5)              121.0034         estimate D2E/DX2                !
 ! A11   A(3,4,40)             121.6133         estimate D2E/DX2                !
 ! A12   A(5,4,40)             117.3833         estimate D2E/DX2                !
 ! A13   A(4,5,6)              118.8079         estimate D2E/DX2                !
 ! A14   A(4,5,8)              119.7329         estimate D2E/DX2                !
 ! A15   A(6,5,8)              121.4592         estimate D2E/DX2                !
 ! A16   A(1,6,5)              120.1154         estimate D2E/DX2                !
 ! A17   A(1,6,9)              120.1376         estimate D2E/DX2                !
 ! A18   A(5,6,9)              119.7471         estimate D2E/DX2                !
 ! A19   A(2,10,11)            113.219          estimate D2E/DX2                !
 ! A20   A(2,10,12)            113.2047         estimate D2E/DX2                !
 ! A21   A(2,10,38)            103.2714         estimate D2E/DX2                !
 ! A22   A(11,10,12)           112.22           estimate D2E/DX2                !
 ! A23   A(11,10,38)           107.0785         estimate D2E/DX2                !
 ! A24   A(12,10,38)           107.0474         estimate D2E/DX2                !
 ! A25   A(10,11,13)           121.2274         estimate D2E/DX2                !
 ! A26   A(10,11,18)           113.8895         estimate D2E/DX2                !
 ! A27   A(13,11,18)           124.8321         estimate D2E/DX2                !
 ! A28   A(10,12,14)           121.1968         estimate D2E/DX2                !
 ! A29   A(10,12,15)           113.8258         estimate D2E/DX2                !
 ! A30   A(14,12,15)           124.924          estimate D2E/DX2                !
 ! A31   A(11,13,28)           118.7301         estimate D2E/DX2                !
 ! A32   A(11,13,34)           127.4627         estimate D2E/DX2                !
 ! A33   A(28,13,34)           113.7903         estimate D2E/DX2                !
 ! A34   A(12,14,28)           118.7562         estimate D2E/DX2                !
 ! A35   A(12,14,30)           127.4729         estimate D2E/DX2                !
 ! A36   A(28,14,30)           113.7544         estimate D2E/DX2                !
 ! A37   A(12,15,16)           123.5849         estimate D2E/DX2                !
 ! A38   A(12,15,17)           115.6644         estimate D2E/DX2                !
 ! A39   A(16,15,17)           120.748          estimate D2E/DX2                !
 ! A40   A(15,17,21)           116.3138         estimate D2E/DX2                !
 ! A41   A(11,18,19)           123.9106         estimate D2E/DX2                !
 ! A42   A(11,18,20)           115.4348         estimate D2E/DX2                !
 ! A43   A(19,18,20)           120.6514         estimate D2E/DX2                !
 ! A44   A(18,20,24)           116.0061         estimate D2E/DX2                !
 ! A45   A(17,21,22)           108.2591         estimate D2E/DX2                !
 ! A46   A(17,21,23)           108.3298         estimate D2E/DX2                !
 ! A47   A(17,21,41)           106.9855         estimate D2E/DX2                !
 ! A48   A(22,21,23)           108.0263         estimate D2E/DX2                !
 ! A49   A(22,21,41)           112.5349         estimate D2E/DX2                !
 ! A50   A(23,21,41)           112.5492         estimate D2E/DX2                !
 ! A51   A(20,24,25)           104.7194         estimate D2E/DX2                !
 ! A52   A(20,24,26)           110.3096         estimate D2E/DX2                !
 ! A53   A(20,24,27)           110.202          estimate D2E/DX2                !
 ! A54   A(25,24,26)           111.153          estimate D2E/DX2                !
 ! A55   A(25,24,27)           111.1142         estimate D2E/DX2                !
 ! A56   A(26,24,27)           109.2799         estimate D2E/DX2                !
 ! A57   A(13,28,14)           125.1208         estimate D2E/DX2                !
 ! A58   A(13,28,29)           117.4156         estimate D2E/DX2                !
 ! A59   A(14,28,29)           117.406          estimate D2E/DX2                !
 ! A60   A(14,30,31)           111.0343         estimate D2E/DX2                !
 ! A61   A(14,30,32)           111.2302         estimate D2E/DX2                !
 ! A62   A(14,30,33)           110.6669         estimate D2E/DX2                !
 ! A63   A(31,30,32)           106.4663         estimate D2E/DX2                !
 ! A64   A(31,30,33)           108.7885         estimate D2E/DX2                !
 ! A65   A(32,30,33)           108.5156         estimate D2E/DX2                !
 ! A66   A(13,34,35)           111.2133         estimate D2E/DX2                !
 ! A67   A(13,34,36)           111.0497         estimate D2E/DX2                !
 ! A68   A(13,34,37)           110.6637         estimate D2E/DX2                !
 ! A69   A(35,34,36)           106.4484         estimate D2E/DX2                !
 ! A70   A(35,34,37)           108.524          estimate D2E/DX2                !
 ! A71   A(36,34,37)           108.8027         estimate D2E/DX2                !
 ! A72   A(21,41,42)           109.8363         estimate D2E/DX2                !
 ! A73   A(21,41,43)           111.0795         estimate D2E/DX2                !
 ! A74   A(21,41,44)           110.9745         estimate D2E/DX2                !
 ! A75   A(42,41,43)           108.182          estimate D2E/DX2                !
 ! A76   A(42,41,44)           108.2001         estimate D2E/DX2                !
 ! A77   A(43,41,44)           108.4751         estimate D2E/DX2                !
 ! D1    D(6,1,2,3)              0.0028         estimate D2E/DX2                !
 ! D2    D(6,1,2,10)          -179.9982         estimate D2E/DX2                !
 ! D3    D(7,1,2,3)           -179.9757         estimate D2E/DX2                !
 ! D4    D(7,1,2,10)             0.0232         estimate D2E/DX2                !
 ! D5    D(2,1,6,5)             -0.0028         estimate D2E/DX2                !
 ! D6    D(2,1,6,9)            179.9995         estimate D2E/DX2                !
 ! D7    D(7,1,6,5)            179.9753         estimate D2E/DX2                !
 ! D8    D(7,1,6,9)             -0.0224         estimate D2E/DX2                !
 ! D9    D(1,2,3,4)             -0.0004         estimate D2E/DX2                !
 ! D10   D(1,2,3,39)          -179.9915         estimate D2E/DX2                !
 ! D11   D(10,2,3,4)          -179.9992         estimate D2E/DX2                !
 ! D12   D(10,2,3,39)            0.0097         estimate D2E/DX2                !
 ! D13   D(1,2,10,11)          115.4434         estimate D2E/DX2                !
 ! D14   D(1,2,10,12)         -115.387          estimate D2E/DX2                !
 ! D15   D(1,2,10,38)            0.0065         estimate D2E/DX2                !
 ! D16   D(3,2,10,11)          -64.5578         estimate D2E/DX2                !
 ! D17   D(3,2,10,12)           64.6118         estimate D2E/DX2                !
 ! D18   D(3,2,10,38)         -179.9947         estimate D2E/DX2                !
 ! D19   D(2,3,4,5)             -0.0021         estimate D2E/DX2                !
 ! D20   D(2,3,4,40)           179.9982         estimate D2E/DX2                !
 ! D21   D(39,3,4,5)           179.9893         estimate D2E/DX2                !
 ! D22   D(39,3,4,40)           -0.0104         estimate D2E/DX2                !
 ! D23   D(3,4,5,6)              0.0022         estimate D2E/DX2                !
 ! D24   D(3,4,5,8)           -179.9989         estimate D2E/DX2                !
 ! D25   D(40,4,5,6)          -179.9981         estimate D2E/DX2                !
 ! D26   D(40,4,5,8)             0.0008         estimate D2E/DX2                !
 ! D27   D(4,5,6,1)              0.0002         estimate D2E/DX2                !
 ! D28   D(4,5,6,9)            179.998          estimate D2E/DX2                !
 ! D29   D(8,5,6,1)           -179.9987         estimate D2E/DX2                !
 ! D30   D(8,5,6,9)             -0.001          estimate D2E/DX2                !
 ! D31   D(2,10,11,13)         112.8488         estimate D2E/DX2                !
 ! D32   D(2,10,11,18)         -69.6283         estimate D2E/DX2                !
 ! D33   D(12,10,11,13)        -16.8222         estimate D2E/DX2                !
 ! D34   D(12,10,11,18)        160.7006         estimate D2E/DX2                !
 ! D35   D(38,10,11,13)       -134.0025         estimate D2E/DX2                !
 ! D36   D(38,10,11,18)         43.5203         estimate D2E/DX2                !
 ! D37   D(2,10,12,14)        -112.8629         estimate D2E/DX2                !
 ! D38   D(2,10,12,15)          69.6692         estimate D2E/DX2                !
 ! D39   D(11,10,12,14)         16.8156         estimate D2E/DX2                !
 ! D40   D(11,10,12,15)       -160.6524         estimate D2E/DX2                !
 ! D41   D(38,10,12,14)        134.0144         estimate D2E/DX2                !
 ! D42   D(38,10,12,15)        -43.4535         estimate D2E/DX2                !
 ! D43   D(10,11,13,28)          5.784          estimate D2E/DX2                !
 ! D44   D(10,11,13,34)       -175.8127         estimate D2E/DX2                !
 ! D45   D(18,11,13,28)       -171.4565         estimate D2E/DX2                !
 ! D46   D(18,11,13,34)          6.9469         estimate D2E/DX2                !
 ! D47   D(10,11,18,19)         -5.331          estimate D2E/DX2                !
 ! D48   D(10,11,18,20)        175.3206         estimate D2E/DX2                !
 ! D49   D(13,11,18,19)        172.0883         estimate D2E/DX2                !
 ! D50   D(13,11,18,20)         -7.2601         estimate D2E/DX2                !
 ! D51   D(10,12,14,28)         -5.7783         estimate D2E/DX2                !
 ! D52   D(10,12,14,30)        175.7935         estimate D2E/DX2                !
 ! D53   D(15,12,14,28)        171.3964         estimate D2E/DX2                !
 ! D54   D(15,12,14,30)         -7.0318         estimate D2E/DX2                !
 ! D55   D(10,12,15,16)          5.6319         estimate D2E/DX2                !
 ! D56   D(10,12,15,17)       -174.9615         estimate D2E/DX2                !
 ! D57   D(14,12,15,16)       -171.7264         estimate D2E/DX2                !
 ! D58   D(14,12,15,17)          7.6802         estimate D2E/DX2                !
 ! D59   D(11,13,28,14)          7.6238         estimate D2E/DX2                !
 ! D60   D(11,13,28,29)       -175.2159         estimate D2E/DX2                !
 ! D61   D(34,13,28,14)       -170.9912         estimate D2E/DX2                !
 ! D62   D(34,13,28,29)          6.1691         estimate D2E/DX2                !
 ! D63   D(11,13,34,35)        -62.3112         estimate D2E/DX2                !
 ! D64   D(11,13,34,36)         56.037          estimate D2E/DX2                !
 ! D65   D(11,13,34,37)        176.9843         estimate D2E/DX2                !
 ! D66   D(28,13,34,35)        116.1587         estimate D2E/DX2                !
 ! D67   D(28,13,34,36)       -125.4931         estimate D2E/DX2                !
 ! D68   D(28,13,34,37)         -4.5458         estimate D2E/DX2                !
 ! D69   D(12,14,28,13)         -7.6264         estimate D2E/DX2                !
 ! D70   D(12,14,28,29)        175.213          estimate D2E/DX2                !
 ! D71   D(30,14,28,13)        171.0107         estimate D2E/DX2                !
 ! D72   D(30,14,28,29)         -6.1499         estimate D2E/DX2                !
 ! D73   D(12,14,30,31)        -56.2743         estimate D2E/DX2                !
 ! D74   D(12,14,30,32)         62.0973         estimate D2E/DX2                !
 ! D75   D(12,14,30,33)       -177.1954         estimate D2E/DX2                !
 ! D76   D(28,14,30,31)        125.2312         estimate D2E/DX2                !
 ! D77   D(28,14,30,32)       -116.3972         estimate D2E/DX2                !
 ! D78   D(28,14,30,33)          4.3101         estimate D2E/DX2                !
 ! D79   D(12,15,17,21)        179.8265         estimate D2E/DX2                !
 ! D80   D(16,15,17,21)         -0.7487         estimate D2E/DX2                !
 ! D81   D(15,17,21,22)        -56.8899         estimate D2E/DX2                !
 ! D82   D(15,17,21,23)         60.0195         estimate D2E/DX2                !
 ! D83   D(15,17,21,41)       -178.4068         estimate D2E/DX2                !
 ! D84   D(11,18,20,24)       -179.9505         estimate D2E/DX2                !
 ! D85   D(19,18,20,24)          0.678          estimate D2E/DX2                !
 ! D86   D(18,20,24,25)        179.5829         estimate D2E/DX2                !
 ! D87   D(18,20,24,26)        -60.743          estimate D2E/DX2                !
 ! D88   D(18,20,24,27)         60.0098         estimate D2E/DX2                !
 ! D89   D(17,21,41,42)        179.8497         estimate D2E/DX2                !
 ! D90   D(17,21,41,43)        -60.5098         estimate D2E/DX2                !
 ! D91   D(17,21,41,44)         60.2531         estimate D2E/DX2                !
 ! D92   D(22,21,41,42)         61.071          estimate D2E/DX2                !
 ! D93   D(22,21,41,43)       -179.2885         estimate D2E/DX2                !
 ! D94   D(22,21,41,44)        -58.5256         estimate D2E/DX2                !
 ! D95   D(23,21,41,42)        -61.2766         estimate D2E/DX2                !
 ! D96   D(23,21,41,43)         58.364          estimate D2E/DX2                !
 ! D97   D(23,21,41,44)        179.1268         estimate D2E/DX2                !
 --------------------------------------------------------------------------------
 Trust Radius=3.00D-01 FncErr=1.00D-07 GrdErr=1.00D-06 EigMax=2.50D+02 EigMin=1.00D-04
 Number of steps in this run=    229 maximum allowed number of steps=    264.
 GradGradGradGradGradGradGradGradGradGradGradGradGradGradGradGradGradGrad

 Leave Link  103 at Tue Mar  3 15:01:57 2026, MaxMem=  2147483648 cpu:               0.5 elap:               0.0
 (Enter /opt/g16/l202.exe)
                          Input orientation:                          
 ---------------------------------------------------------------------
 Center     Atomic      Atomic             Coordinates (Angstroms)
 Number     Number       Type             X           Y           Z
 ---------------------------------------------------------------------
      1          6           0        0.572612    1.466913   -2.034175
      2          6           0        0.448643    0.857176   -0.773992
      3          6           0        0.666633    1.666636    0.349778
      4          6           0        0.992049    3.017754    0.212137
      5          6           0        1.109727    3.600934   -1.042654
      6          6           0        0.896638    2.812190   -2.173010
      7          1           0        0.407525    0.857417   -2.908199
      8          1           0        1.362146    4.646992   -1.125186
      9          1           0        0.984273    3.250529   -3.157127
     10          6           0        0.083669   -0.647952   -0.748844
     11          6           0        1.187532   -1.526049   -0.159187
     12          6           0       -1.278721   -0.926994   -0.113146
     13          6           0        1.014358   -2.179174    1.024929
     14          6           0       -1.382141   -1.596910    1.069373
     15          6           0       -2.408875   -0.466579   -0.914545
     16          8           0       -2.293012    0.009780   -2.058247
     17          8           0       -3.657407   -0.601669   -0.325778
     18          6           0        2.374040   -1.628421   -1.001336
     19          8           0        2.459548   -1.140163   -2.141860
     20          8           0        3.435632   -2.334566   -0.452403
     21          6           0       -4.813772   -0.135404   -1.124624
     22          1           0       -4.652630    0.911347   -1.379590
     23          1           0       -4.842997   -0.707537   -2.051417
     24          6           0        4.637541   -2.444448   -1.289524
     25          1           0        5.339437   -3.013935   -0.690451
     26          1           0        4.404887   -2.960746   -2.218246
     27          1           0        5.028723   -1.455301   -1.516772
     28          7           0       -0.232373   -2.134087    1.636374
     29          1           0       -0.318818   -2.559238    2.543046
     30          6           0       -2.635022   -1.871046    1.861631
     31          1           0       -3.157356   -0.947545    2.097447
     32          1           0       -3.333209   -2.484366    1.295189
     33          1           0       -2.396502   -2.387722    2.793063
     34          6           0        2.029661   -3.004415    1.774066
     35          1           0        2.344965   -3.866730    1.189464
     36          1           0        2.927282   -2.426915    1.979376
     37          1           0        1.615607   -3.359144    2.719647
     38          1           0        0.001643   -0.903164   -1.805123
     39         17           0        0.532780    0.981518    2.038215
     40         17           0        1.279006    4.085628    1.664528
     41          6           0       -6.051200   -0.342281   -0.274728
     42          1           0       -6.936017   -0.009367   -0.821272
     43          1           0       -6.182722   -1.394954   -0.023304
     44          1           0       -5.988300    0.228871    0.651597
 ---------------------------------------------------------------------
                    Distance matrix (angstroms):
                    1          2          3          4          5
     1  C    0.000000
     2  C    1.405421   0.000000
     3  C    2.394151   1.402000   0.000000
     4  C    2.761694   2.436357   1.396553   0.000000
     5  C    2.413639   2.835034   2.424192   1.388686   0.000000
     6  C    1.390697   2.445410   2.780226   2.395889   1.394715
     7  H    1.078266   2.134603   3.366955   3.839951   3.391199
     8  H    3.400372   3.914145   3.397319   2.140052   1.079242
     9  H    2.147504   3.419703   3.861087   3.377304   2.146979
    10  C    2.522656   1.548951   2.627572   3.896927   4.380885
    11  C    3.584903   2.569767   3.274694   4.563139   5.203126
    12  C    3.584491   2.569779   3.274999   4.563249   5.202961
    13  C    4.779875   3.574293   3.920076   5.260151   6.139515
    14  C    4.779130   3.573836   3.919952   5.259920   6.139027
    15  C    3.725752   3.152379   3.950679   4.997627   5.379743
    16  O    3.214905   3.143893   4.159718   4.999418   5.050391
    17  O    5.009063   4.380499   4.929392   5.916673   6.395416
    18  C    3.727330   3.152306   3.949449   4.996935   5.380181
    19  O    3.220088   3.147088   4.159438   4.998313   5.050571
    20  O    5.014990   4.383234   4.931579   5.921152   6.402218
    21  C    5.692788   5.366672   5.954498   6.740689   7.003912
    22  H    5.295308   5.137380   5.644088   6.231609   6.368058
    23  H    5.835868   5.664062   6.462078   7.283490   7.417240
    24  C    5.690070   5.358485   5.946128   6.736486   7.003789
    25  H    6.678788   6.237976   6.695141   7.489708   7.859452
    26  H    5.858701   5.684564   6.479348   7.300458   7.436111
    27  H    5.353874   5.184246   5.679642   6.268340   6.414735
    28  N    5.204626   3.901449   4.112060   5.483532   6.470617
    29  H    6.160803   4.823238   4.862052   6.185010   7.269505
    30  C    6.050470   4.888629   5.069696   6.306888   7.238825
    31  H    6.067336   4.950294   4.950877   6.041155   6.982614
    32  H    6.477091   5.454339   5.841520   7.081962   7.888984
    33  H    6.853910   5.598937   5.638285   6.882051   7.929084
    34  C    6.051319   4.889182   5.070026   6.307359   7.239532
    35  H    6.479262   5.455867   5.842945   7.083902   7.891398
    36  H    6.067533   4.950751   4.952099   6.042572   6.983633
    37  H    6.854013   5.598631   5.636958   6.880498   7.928021
    38  H    2.448619   2.088501   3.419018   4.519274   4.700650
    39  Cl   4.101409   2.816212   1.827053   2.773400   4.084845
    40  Cl   4.586618   4.130228   2.820477   1.825415   2.755434
    41  C    7.088281   6.628418   7.039534   7.818838   8.210818
    42  H    7.747906   7.435478   7.872778   8.549013   8.821410
    43  H    7.607130   7.043481   7.511737   8.426432   8.898190
    44  H    7.196644   6.622787   6.815159   7.529692   8.038861
                    6          7          8          9         10
     6  C    0.000000
     7  H    2.144964   0.000000
     8  H    2.163592   4.295499   0.000000
     9  H    1.080883   2.474184   2.494330   0.000000
    10  C    3.829066   2.652137   5.460089   4.670018   0.000000
    11  C    4.791703   3.721074   6.250606   5.643107   1.528811
    12  C    4.791318   3.720198   6.250418   5.642576   1.529079
    13  C    5.929113   5.005859   7.165228   6.853625   2.521328
    14  C    5.928410   5.004768   7.164741   6.852801   2.520919
    15  C    4.822912   3.695907   6.357167   5.509947   2.504621
    16  O    4.247416   2.955302   5.977836   4.738205   2.792089
    17  O    5.983814   5.032048   7.306395   6.663420   3.765206
    18  C    4.824372   3.699013   6.357679   5.512081   2.504171
    19  O    4.250265   2.964524   5.977381   4.741875   2.797779
    20  O    5.991333   5.038762   7.313968   6.672179   3.764067
    21  C    6.511237   5.606137   7.811099   7.015193   4.938506
    22  H    5.919214   5.286277   7.085005   6.356578   5.026110
    23  H    6.733994   5.545371   8.248193   7.130635   5.096301
    24  C    6.512077   5.604949   7.813049   7.019051   4.925189
    25  H    7.475304   6.650528   8.642780   8.018445   5.764060
    26  H    6.755490   5.570755   8.266240   7.152764   5.116745
    27  H    5.976308   5.351654   7.129874   6.418191   5.069032
    28  N    6.344425   5.478294   7.493446   7.311085   2.828028
    29  H    7.250569   6.474348   8.259014   8.242779   3.827734
    30  C    7.119245   6.281153   8.208730   8.032295   3.962552
    31  H    6.986221   6.404901   7.880997   7.898574   4.323814
    32  H    7.614034   6.544393   8.874730   8.447058   4.384694
    33  H    7.908586   7.134275   8.886355   8.867033   4.660810
    34  C    7.120115   6.282410   8.209462   8.033295   3.962938
    35  H    7.616551   6.546914   8.877331   8.449835   4.385320
    36  H    6.986705   6.405029   7.882139   7.898881   4.323659
    37  H    7.908247   7.135229   8.885111   8.866952   4.661312
    38  H    3.839298   2.116876   5.754782   4.477348   1.089765
    39  Cl   4.606318   4.949556   4.912296   5.687164   3.259535
    40  Cl   4.061348   5.664862   2.846848   4.902307   5.446097
    41  C    7.862990   7.077399   8.976292   8.409185   6.160750
    42  H    8.434386   7.683371   9.520166   8.877732   7.049044
    43  H    8.511089   7.538378   9.728530   9.097647   6.352328
    44  H    7.877456   7.346686   8.758185   8.500210   6.292763
                   11         12         13         14         15
    11  C    0.000000
    12  C    2.538383   0.000000
    13  C    1.363339   2.849804   0.000000
    14  C    2.849140   1.363024   2.466620   0.000000
    15  C    3.824550   1.459956   4.291045   2.503550   0.000000
    16  O    4.251986   2.385320   5.023563   3.632237   1.244346
    17  O    4.935146   2.410227   5.112565   2.848471   1.386985
    18  C    1.458594   3.824074   2.501562   4.289257   4.922772
    19  O    2.387033   4.258612   3.632722   5.027843   5.065724
    20  O    2.406996   4.931681   2.840638   5.105965   6.153147
    21  C    6.235512   3.761155   6.539470   4.327322   2.436666
    22  H    6.444981   4.045570   6.888235   4.794254   2.673833
    23  H    6.373208   4.063142   6.777775   4.744243   2.697311
    24  C    3.744820   6.220023   4.307496   6.520681   7.328339
    25  H    4.442337   6.963377   4.727120   7.091160   8.159386
    26  H    4.080374   6.393043   4.756546   6.793981   7.372100
    27  H    4.074652   6.483296   4.806180   6.914288   7.527158
    28  N    2.368518   2.369122   1.389329   1.389970   3.744988
    29  H    3.261692   3.262053   2.055842   2.056318   4.550000
    30  C    4.337585   2.574982   3.756726   1.507493   3.119427
    31  H    4.930022   2.901106   4.480000   2.151743   3.140645
    32  H    4.844655   2.937641   4.366637   2.155281   3.131898
    33  H    4.722665   3.439362   3.847565   2.150679   4.175799
    34  C    2.575309   4.338506   1.507670   3.757400   5.776664
    35  H    2.938928   4.844578   2.155326   4.365527   6.211834
    36  H    2.900300   4.931417   2.152121   4.481980   6.379049
    37  H    3.439647   4.724109   2.150790   3.849073   6.145790
    38  H    2.122127   2.121953   3.265423   3.264792   2.606594
    39  Cl   3.397818   3.398869   3.353899   3.354679   4.412382
    40  Cl   5.901290   5.901565   6.302925   6.302948   6.401146
    41  C    7.335796   4.810879   7.415214   5.018049   3.700182
    42  H    8.290400   5.774814   8.445412   6.077859   4.551127
    43  H    7.372672   4.927097   7.315173   4.927505   3.987244
    44  H    7.431667   4.909276   7.414531   4.972395   3.968468
                   16         17         18         19         20
    16  O    0.000000
    17  O    2.288426   0.000000
    18  C    5.057879   6.155400   0.000000
    19  O    4.890418   6.403536   1.243585   0.000000
    20  O    6.394690   7.302751   1.388145   2.287707   0.000000
    21  C    2.692018   1.480790   7.342271   7.412523   8.563928
    22  H    2.615568   2.095282   7.481149   7.441292   8.764451
    23  H    2.648965   2.096345   7.350940   7.315908   8.587186
    24  C    7.392343   8.551655   2.423301   2.677926   1.468820
    25  H    8.322740   9.321760   3.287838   3.729795   2.035358
    26  H    7.328811   8.610881   2.716671   2.665465   2.109445
    27  H    7.486485   8.808860   2.709795   2.662838   2.108062
    28  N    4.742639   4.234289   3.742539   4.744405   4.225807
    29  H    5.627539   4.817510   4.547587   5.628626   4.808231
    30  C    4.361183   2.727883   5.774612   6.520489   6.513251
    31  H    4.351247   2.498340   6.376707   7.039775   7.203683
    32  H    4.306775   2.505431   6.211229   6.868495   6.992405
    33  H    5.412387   3.808810   6.142644   7.034990   6.674553
    34  C    6.515942   6.521141   3.116859   4.358293   2.717097
    35  H    6.861908   6.998932   3.132168   4.306393   2.496559
    36  H    7.035009   7.211337   3.135014   4.342706   2.486061
    37  H    7.032441   6.684531   4.173289   5.410209   3.797914
    38  H    2.482535   3.958283   2.607746   2.492159   3.958667
    39  Cl   5.070540   5.064841   4.409182   5.068234   5.062227
    40  Cl   6.575021   7.092267   6.399710   6.571998   7.095867
    41  C    4.174789   2.408347   8.553758   8.749607   9.695398
    42  H    4.804994   3.368326   9.451504   9.555066  10.635493
    43  H    4.609134   2.664209   8.615639   8.901799   9.673662
    44  H    4.587637   2.660474   8.724130   9.002433   9.828556
                   21         22         23         24         25
    21  C    0.000000
    22  H    1.089340   0.000000
    23  H    1.089557   1.763059   0.000000
    24  C    9.730683   9.878094   9.668399   0.000000
    25  H   10.562296  10.757516  10.528707   1.084372   0.000000
    26  H    9.703723   9.886105   9.519881   1.087757   1.791751
    27  H    9.938341   9.967369   9.914426   1.087693   1.791282
    28  N    5.710259   6.157059   6.073936   5.689751   6.101911
    29  H    6.287399   6.798085   6.708657   6.266360   6.532848
    30  C    4.083763   4.724189   4.641212   7.946618   8.450522
    31  H    3.712819   4.216765   4.484647   8.629757   9.178117
    32  H    3.683094   4.519533   4.078769   8.379450   8.912800
    33  H    5.124881   5.777976   5.681316   8.133173   8.507160
    34  C    7.966568   8.362521   8.194107   4.062042   4.126567
    35  H    8.397935   8.854174   8.494151   3.663901   3.637060
    36  H    8.649263   8.937657   8.920807   3.689309   3.645691
    37  H    8.155233   8.621579   8.456219   5.103156   5.061111
    38  H    4.923490   5.013560   4.854840   4.912530   5.847212
    39  Cl   6.311631   6.210861   6.962541   6.297631   6.820060
    40  Cl   7.919496   7.384241   8.617517   7.915054   8.510982
    41  C    1.515371   2.179060   2.179401  10.940663  11.707142
    42  H    2.147518   2.524537   2.526149  11.836221  12.638485
    43  H    2.161804   3.082161   2.525994  10.944535  11.654455
    44  H    2.160364   2.524977   3.081374  11.127582  11.858942
                   26         27         28         29         30
    26  H    0.000000
    27  H    1.774148   0.000000
    28  N    6.086513   6.171079   0.000000
    29  H    6.718966   6.804189   1.005127   0.000000
    30  C    8.209334   8.385669   2.427479   2.510525   0.000000
    31  H    8.936761   8.962828   3.189984   3.294452   1.086874
    32  H    8.511715   8.881892   3.139154   3.263327   1.088340
    33  H    8.467613   8.635859   2.466924   2.099690   1.091518
    34  C    4.645660   4.714206   2.427597   2.510949   4.801194
    35  H    4.083696   4.510129   3.137587   3.261512   5.406925
    36  H    4.482000   4.193225   3.191680   3.297332   5.591250
    37  H    5.685208   5.763786   2.467646   2.100723   4.584591
    38  H    4.877794   5.065524   3.662490   4.663888   4.618862
    39  Cl   6.975107   6.228124   3.233254   3.676551   4.266529
    40  Cl   8.631249   7.408302   6.400774   6.890506   7.130248
    41  C   10.952779  11.204739   6.381350   6.761283   4.309458
    42  H   11.801622  12.071845   7.449383   7.849064   5.400220
    43  H   10.925518  11.310640   6.221535   6.505927   4.045469
    44  H   11.244020  11.353989   6.299528   6.595010   4.137428
                   31         32         33         34         35
    31  H    0.000000
    32  H    1.742516   0.000000
    33  H    1.771127   1.769290   0.000000
    34  C    5.589314   5.409265   4.583621   0.000000
    35  H    6.294570   5.844978   5.219244   1.088468   0.000000
    36  H    6.263010   6.298028   5.385750   1.086914   1.742447
    37  H    5.383690   5.223514   4.128689   1.091511   1.769482
    38  H    5.021085   4.820101   5.394286   4.619384   4.820937
    39  Cl   4.164360   5.245027   4.527943   4.265922   5.244988
    40  Cl   6.723210   8.035780   7.529091   7.130511   8.037534
    41  C    3.790500   3.800085   5.191530   8.751276   9.222862
    42  H    4.865941   4.856465   6.271139   9.802524  10.249826
    43  H    3.721639   3.323397   4.822134   8.559447   8.961134
    44  H    3.389496   3.850373   4.932895   8.717900   9.300890
                   36         37         38         39         40
    36  H    0.000000
    37  H    1.771311   0.000000
    38  H    5.020320   5.395393   0.000000
    39  Cl   4.165875   4.525286   4.313395   0.000000
    40  Cl   6.725263   7.526700   6.209523   3.214342   0.000000
    41  C    9.488932   8.766280   6.268461   7.102883   8.780604
    42  H   10.534364   9.843241   7.063849   8.058626   9.509721
    43  H    9.384447   8.496809   6.454696   7.415892   9.410789
    44  H    9.397010   8.658527   6.572396   6.709223   8.289411
                   41         42         43         44
    41  C    0.000000
    42  H    1.091990   0.000000
    43  H    1.090244   1.767500   0.000000
    44  H    1.090068   1.767560   1.769209   0.000000
 Stoichiometry    C18H19Cl2NO4
 Framework group  C1[X(C18H19Cl2NO4)]
 Deg. of freedom   126
 Full point group                 C1      NOp   1
 Largest Abelian subgroup         C1      NOp   1
 Largest concise Abelian subgroup C1      NOp   1
                         Standard orientation:                         
 ---------------------------------------------------------------------
 Center     Atomic      Atomic             Coordinates (Angstroms)
 Number     Number       Type             X           Y           Z
 ---------------------------------------------------------------------
      1          6           0        0.572612    1.466913   -2.034175
      2          6           0        0.448643    0.857176   -0.773992
      3          6           0        0.666633    1.666636    0.349778
      4          6           0        0.992049    3.017754    0.212137
      5          6           0        1.109727    3.600934   -1.042654
      6          6           0        0.896638    2.812190   -2.173010
      7          1           0        0.407525    0.857417   -2.908199
      8          1           0        1.362147    4.646992   -1.125186
      9          1           0        0.984273    3.250529   -3.157127
     10          6           0        0.083669   -0.647952   -0.748844
     11          6           0        1.187532   -1.526049   -0.159187
     12          6           0       -1.278721   -0.926994   -0.113146
     13          6           0        1.014358   -2.179174    1.024929
     14          6           0       -1.382141   -1.596910    1.069373
     15          6           0       -2.408875   -0.466579   -0.914545
     16          8           0       -2.293012    0.009780   -2.058247
     17          8           0       -3.657407   -0.601668   -0.325778
     18          6           0        2.374040   -1.628421   -1.001336
     19          8           0        2.459548   -1.140163   -2.141860
     20          8           0        3.435632   -2.334567   -0.452403
     21          6           0       -4.813772   -0.135403   -1.124624
     22          1           0       -4.652630    0.911348   -1.379590
     23          1           0       -4.842997   -0.707536   -2.051417
     24          6           0        4.637541   -2.444449   -1.289524
     25          1           0        5.339437   -3.013936   -0.690451
     26          1           0        4.404887   -2.960747   -2.218246
     27          1           0        5.028723   -1.455302   -1.516772
     28          7           0       -0.232373   -2.134087    1.636374
     29          1           0       -0.318818   -2.559238    2.543046
     30          6           0       -2.635022   -1.871046    1.861631
     31          1           0       -3.157356   -0.947545    2.097447
     32          1           0       -3.333209   -2.484366    1.295189
     33          1           0       -2.396502   -2.387722    2.793063
     34          6           0        2.029661   -3.004415    1.774066
     35          1           0        2.344964   -3.866730    1.189464
     36          1           0        2.927282   -2.426915    1.979376
     37          1           0        1.615606   -3.359144    2.719647
     38          1           0        0.001643   -0.903164   -1.805123
     39         17           0        0.532780    0.981518    2.038215
     40         17           0        1.279007    4.085628    1.664528
     41          6           0       -6.051200   -0.342280   -0.274728
     42          1           0       -6.936017   -0.009366   -0.821272
     43          1           0       -6.182722   -1.394953   -0.023304
     44          1           0       -5.988300    0.228872    0.651597
 ---------------------------------------------------------------------
 Rotational constants (GHZ):           0.2009761           0.1629672           0.1254659
 Leave Link  202 at Tue Mar  3 15:01:57 2026, MaxMem=  2147483648 cpu:               0.1 elap:               0.0
 (Enter /opt/g16/l301.exe)
 Standard basis: 6-31+G(d) (6D, 7F)
 Ernie: Thresh=  0.10000D-02 Tol=  0.10000D-05 Strict=F.
 There are   521 symmetry adapted cartesian basis functions of A   symmetry.
 There are   521 symmetry adapted basis functions of A   symmetry.
   521 basis functions,   924 primitive gaussians,   521 cartesian basis functions
   100 alpha electrons      100 beta electrons
       nuclear repulsion energy      2621.2493732318 Hartrees.
 IExCor= 4639 DFT=T Ex+Corr=wB97XD ExCW=0 ScaHFX=  1.000000
 ScaDFX=  1.000000  1.000000  1.000000  1.000000 ScalE2=  1.000000  1.000000
 IRadAn=      5 IRanWt=     -1 IRanGd=            0 ICorTp=0 IEmpDi=121
 HFx  wShort=  0.000000 wLong=  0.200000 cFull=  0.222036 cShort=  0.000000 cLong=  0.777964
 DFx  wShort=  0.000000 wLong=  0.200000 cFull=  0.000000 cShort=  0.000000 cLong=  1.000000
 NAtoms=   44 NActive=   44 NUniq=   44 SFac= 1.00D+00 NAtFMM=   60 NAOKFM=F Big=F
 Integral buffers will be    131072 words long.
 Raffenetti 2 integral format.
 Two-electron integral symmetry is turned on.
 R6Disp:  Grimme-D2 Dispersion energy=       -0.0352753955 Hartrees.
 Nuclear repulsion after empirical dispersion term =     2621.2140978364 Hartrees.
 Leave Link  301 at Tue Mar  3 15:01:57 2026, MaxMem=  2147483648 cpu:               1.8 elap:               0.1
 (Enter /opt/g16/l302.exe)
 NPDir=0 NMtPBC=     1 NCelOv=     1 NCel=       1 NClECP=     1 NCelD=      1
         NCelK=      1 NCelE2=     1 NClLst=     1 CellRange=     0.0.
 One-electron integrals computed using PRISM.
 One-electron integral symmetry used in STVInt
 NBasis=   521 RedAO= T EigKep=  1.40D-06  NBF=   521
 NBsUse=   516 1.00D-06 EigRej=  8.63D-07 NBFU=   516
 Precomputing XC quadrature grid using
 IXCGrd= 4 IRadAn=           5 IRanWt=          -1 IRanGd=           0 AccXCQ= 0.00D+00.
 Generated NRdTot=       0 NPtTot=           0 NUsed=           0 NTot=          32
 NSgBfM=   515   515   515   515   515 MxSgAt=    44 MxSgA2=    44.
 Leave Link  302 at Tue Mar  3 15:01:59 2026, MaxMem=  2147483648 cpu:              25.3 elap:               1.6
 (Enter /opt/g16/l303.exe)
 DipDrv:  MaxL=1.
 Leave Link  303 at Tue Mar  3 15:01:59 2026, MaxMem=  2147483648 cpu:               2.5 elap:               0.2
 (Enter /opt/g16/l401.exe)
 ExpMin= 4.38D-02 ExpMax= 2.52D+04 ExpMxC= 3.78D+03 IAcc=3 IRadAn=         5 AccDes= 0.00D+00
 Harris functional with IExCor= 4639 and IRadAn=       5 diagonalized for initial guess.
 HarFok:  IExCor= 4639 AccDes= 0.00D+00 IRadAn=         5 IDoV= 1 UseB2=F ITyADJ=14
 ICtDFT=  3500011 ScaDFX=  1.000000  1.000000  1.000000  1.000000
 FoFCou: FMM=F IPFlag=           0 FMFlag=      100000 FMFlg1=           0
         NFxFlg=           0 DoJE=T BraDBF=F KetDBF=T FulRan=T
         wScrn=  0.000000 ICntrl=       500 IOpCl=  0 I1Cent=   200000004 NGrid=           0
         NMat0=    1 NMatS0=      1 NMatT0=    0 NMatD0=    1 NMtDS0=    0 NMtDT0=    0
 Petite list used in FoFCou.
 Harris En= -1913.37397747381    
 JPrj=0 DoOrth=F DoCkMO=F.
 Leave Link  401 at Tue Mar  3 15:02:04 2026, MaxMem=  2147483648 cpu:              74.2 elap:               4.7
 (Enter /opt/g16/l502.exe)
 Integral symmetry usage will be decided dynamically.
 Closed shell SCF:
 Using DIIS extrapolation, IDIIS=  1040.
 NGot=  2147483648 LenX=  2146926076 LenY=  2146654114
 Requested convergence on RMS density matrix=1.00D-08 within 128 cycles.
 Requested convergence on MAX density matrix=1.00D-06.
 Requested convergence on             energy=1.00D-06.
 No special actions if energy rises.
 Fock matrices will be formed incrementally for  20 cycles.

 Cycle   1  Pass 1  IDiag  1:
 FoFJK:  IHMeth= 1 ICntrl=       0 DoSepK=T KAlg= 0 I1Cent=           0 FoldK=F
 IRaf=         1 NMat=       1 IRICut=       1 DoRegI=T DoRafI=F ISym2E= 0 IDoP0=0 IntGTp=1.
 FoFCou: FMM=F IPFlag=           0 FMFlag=      100000 FMFlg1=           0
         NFxFlg=           0 DoJE=T BraDBF=F KetDBF=F FulRan=T
         wScrn=  0.000000 ICntrl=       500 IOpCl=  0 I1Cent=           0 NGrid=           0
         NMat0=    1 NMatS0=      1 NMatT0=    0 NMatD0=    1 NMtDS0=    0 NMtDT0=    0
 Symmetry not used in FoFCou.
 E= -1972.38214596381    
 DIIS: error= 1.08D-01 at cycle   1 NSaved=   1.
 NSaved= 1 IEnMin= 1 EnMin= -1972.38214596381     IErMin= 1 ErrMin= 1.08D-01
 ErrMax= 1.08D-01  0.00D+00 EMaxC= 1.00D-01 BMatC= 1.67D+00 BMatP= 1.67D+00
 IDIUse=3 WtCom= 0.00D+00 WtEn= 1.00D+00
 Coeff-Com:  0.100D+01
 Coeff-En:   0.100D+01
 Coeff:      0.100D+01
 Gap=     0.539 Goal=   None    Shift=    0.000
 GapD=    0.539 DampG=2.000 DampE=0.250 DampFc=0.5000 IDamp=-1.
 Damping current iteration by 5.00D-01
 RMSDP=3.81D-02 MaxDP=3.03D+00              OVMax= 2.37D-01

 Cycle   2  Pass 1  IDiag  1:
 RMSU=  1.72D-02    CP:  9.16D-01
 E= -1972.71834932351     Delta-E=       -0.336203359703 Rises=F Damp=T
 DIIS: error= 4.16D-02 at cycle   2 NSaved=   2.
 NSaved= 2 IEnMin= 2 EnMin= -1972.71834932351     IErMin= 2 ErrMin= 4.16D-02
 ErrMax= 4.16D-02  0.00D+00 EMaxC= 1.00D-01 BMatC= 2.76D-01 BMatP= 1.67D+00
 IDIUse=3 WtCom= 5.84D-01 WtEn= 4.16D-01
 Coeff-Com: -0.323D+00 0.132D+01
 Coeff-En:   0.000D+00 0.100D+01
 Coeff:     -0.189D+00 0.119D+01
 Gap=     0.450 Goal=   None    Shift=    0.000
 RMSDP=3.38D-02 MaxDP=3.77D+00 DE=-3.36D-01 OVMax= 1.55D-01

 Cycle   3  Pass 1  IDiag  1:
 RMSU=  1.48D-02    CP:  6.18D-01  5.38D-01
 E= -1973.00052582512     Delta-E=       -0.282176501603 Rises=F Damp=F
 DIIS: error= 9.05D-03 at cycle   3 NSaved=   3.
 NSaved= 3 IEnMin= 3 EnMin= -1973.00052582512     IErMin= 3 ErrMin= 9.05D-03
 ErrMax= 9.05D-03  0.00D+00 EMaxC= 1.00D-01 BMatC= 8.77D-02 BMatP= 2.76D-01
 IDIUse=3 WtCom= 9.10D-01 WtEn= 9.05D-02
 Coeff-Com: -0.220D+00 0.572D+00 0.648D+00
 Coeff-En:   0.000D+00 0.000D+00 0.100D+01
 Coeff:     -0.200D+00 0.521D+00 0.680D+00
 Gap=     0.299 Goal=   None    Shift=    0.000
 RMSDP=8.00D-03 MaxDP=5.58D-01 DE=-2.82D-01 OVMax= 7.49D-02

 Cycle   4  Pass 1  IDiag  1:
 RMSU=  5.76D-03    CP:  6.02D-01  8.29D-01  8.77D-01
 E= -1973.05964900015     Delta-E=       -0.059123175033 Rises=F Damp=F
 DIIS: error= 3.46D-03 at cycle   4 NSaved=   4.
 NSaved= 4 IEnMin= 4 EnMin= -1973.05964900015     IErMin= 4 ErrMin= 3.46D-03
 ErrMax= 3.46D-03  0.00D+00 EMaxC= 1.00D-01 BMatC= 1.86D-02 BMatP= 8.77D-02
 IDIUse=3 WtCom= 9.65D-01 WtEn= 3.46D-02
 Coeff-Com: -0.827D-01 0.182D+00 0.377D+00 0.524D+00
 Coeff-En:   0.000D+00 0.000D+00 0.146D+00 0.854D+00
 Coeff:     -0.798D-01 0.175D+00 0.369D+00 0.535D+00
 Gap=     0.289 Goal=   None    Shift=    0.000
 RMSDP=2.49D-03 MaxDP=2.12D-01 DE=-5.91D-02 OVMax= 2.39D-02

 Cycle   5  Pass 1  IDiag  1:
 RMSU=  1.13D-03    CP:  5.87D-01  7.69D-01  9.23D-01  7.98D-01
 E= -1973.07410968260     Delta-E=       -0.014460682455 Rises=F Damp=F
 DIIS: error= 5.86D-04 at cycle   5 NSaved=   5.
 NSaved= 5 IEnMin= 5 EnMin= -1973.07410968260     IErMin= 5 ErrMin= 5.86D-04
 ErrMax= 5.86D-04  0.00D+00 EMaxC= 1.00D-01 BMatC= 6.36D-04 BMatP= 1.86D-02
 IDIUse=3 WtCom= 9.94D-01 WtEn= 5.86D-03
 Coeff-Com: -0.223D-01 0.437D-01 0.133D+00 0.251D+00 0.595D+00
 Coeff-En:   0.000D+00 0.000D+00 0.000D+00 0.000D+00 0.100D+01
 Coeff:     -0.221D-01 0.435D-01 0.132D+00 0.250D+00 0.597D+00
 Gap=     0.288 Goal=   None    Shift=    0.000
 RMSDP=8.37D-04 MaxDP=7.19D-02 DE=-1.45D-02 OVMax= 4.22D-03

 Cycle   6  Pass 1  IDiag  1:
 RMSU=  7.23D-04    CP:  5.91D-01  7.66D-01  9.37D-01  8.22D-01  1.10D+00
 E= -1973.07463583570     Delta-E=       -0.000526153099 Rises=F Damp=F
 DIIS: error= 1.57D-04 at cycle   6 NSaved=   6.
 NSaved= 6 IEnMin= 6 EnMin= -1973.07463583570     IErMin= 6 ErrMin= 1.57D-04
 ErrMax= 1.57D-04  0.00D+00 EMaxC= 1.00D-01 BMatC= 5.06D-05 BMatP= 6.36D-04
 IDIUse=3 WtCom= 9.98D-01 WtEn= 1.57D-03
 Coeff-Com:  0.567D-02-0.141D-01-0.820D-02 0.987D-02 0.205D+00 0.802D+00
 Coeff-En:   0.000D+00 0.000D+00 0.000D+00 0.000D+00 0.000D+00 0.100D+01
 Coeff:      0.567D-02-0.141D-01-0.819D-02 0.985D-02 0.205D+00 0.802D+00
 Gap=     0.289 Goal=   None    Shift=    0.000
 RMSDP=3.63D-04 MaxDP=4.20D-02 DE=-5.26D-04 OVMax= 2.77D-03

 Cycle   7  Pass 1  IDiag  1:
 RMSU=  2.91D-04    CP:  5.89D-01  7.70D-01  9.44D-01  8.41D-01  1.17D+00
                    CP:  1.01D+00
 E= -1973.07470425407     Delta-E=       -0.000068418362 Rises=F Damp=F
 DIIS: error= 7.34D-05 at cycle   7 NSaved=   7.
 NSaved= 7 IEnMin= 7 EnMin= -1973.07470425407     IErMin= 7 ErrMin= 7.34D-05
 ErrMax= 7.34D-05  0.00D+00 EMaxC= 1.00D-01 BMatC= 1.07D-05 BMatP= 5.06D-05
 IDIUse=1 WtCom= 1.00D+00 WtEn= 0.00D+00
 Coeff-Com:  0.637D-02-0.135D-01-0.248D-01-0.387D-01-0.147D-01 0.351D+00
 Coeff-Com:  0.734D+00
 Coeff:      0.637D-02-0.135D-01-0.248D-01-0.387D-01-0.147D-01 0.351D+00
 Coeff:      0.734D+00
 Gap=     0.289 Goal=   None    Shift=    0.000
 RMSDP=1.89D-04 MaxDP=1.38D-02 DE=-6.84D-05 OVMax= 1.48D-03

 Cycle   8  Pass 1  IDiag  1:
 RMSU=  6.20D-05    CP:  5.90D-01  7.69D-01  9.47D-01  8.48D-01  1.25D+00
                    CP:  1.19D+00  1.10D+00
 E= -1973.07471927830     Delta-E=       -0.000015024238 Rises=F Damp=F
 DIIS: error= 2.66D-05 at cycle   8 NSaved=   8.
 NSaved= 8 IEnMin= 8 EnMin= -1973.07471927830     IErMin= 8 ErrMin= 2.66D-05
 ErrMax= 2.66D-05  0.00D+00 EMaxC= 1.00D-01 BMatC= 8.37D-07 BMatP= 1.07D-05
 IDIUse=1 WtCom= 1.00D+00 WtEn= 0.00D+00
 Coeff-Com:  0.162D-02-0.322D-02-0.758D-02-0.152D-01-0.244D-01 0.481D-01
 Coeff-Com:  0.256D+00 0.744D+00
 Coeff:      0.162D-02-0.322D-02-0.758D-02-0.152D-01-0.244D-01 0.481D-01
 Coeff:      0.256D+00 0.744D+00
 Gap=     0.289 Goal=   None    Shift=    0.000
 RMSDP=3.11D-05 MaxDP=2.12D-03 DE=-1.50D-05 OVMax= 5.72D-04

 Cycle   9  Pass 1  IDiag  1:
 RMSU=  2.49D-05    CP:  5.90D-01  7.69D-01  9.47D-01  8.49D-01  1.26D+00
                    CP:  1.19D+00  1.12D+00  9.88D-01
 E= -1973.07472061791     Delta-E=       -0.000001339607 Rises=F Damp=F
 DIIS: error= 1.70D-05 at cycle   9 NSaved=   9.
 NSaved= 9 IEnMin= 9 EnMin= -1973.07472061791     IErMin= 9 ErrMin= 1.70D-05
 ErrMax= 1.70D-05  0.00D+00 EMaxC= 1.00D-01 BMatC= 1.78D-07 BMatP= 8.37D-07
 IDIUse=1 WtCom= 1.00D+00 WtEn= 0.00D+00
 Coeff-Com: -0.559D-03 0.126D-02 0.178D-02 0.906D-03-0.606D-02-0.418D-01
 Coeff-Com: -0.230D-01 0.308D+00 0.759D+00
 Coeff:     -0.559D-03 0.126D-02 0.178D-02 0.906D-03-0.606D-02-0.418D-01
 Coeff:     -0.230D-01 0.308D+00 0.759D+00
 Gap=     0.289 Goal=   None    Shift=    0.000
 RMSDP=2.72D-05 MaxDP=2.71D-03 DE=-1.34D-06 OVMax= 3.20D-04

 Cycle  10  Pass 1  IDiag  1:
 RMSU=  1.46D-05    CP:  5.90D-01  7.69D-01  9.47D-01  8.48D-01  1.26D+00
                    CP:  1.20D+00  1.15D+00  9.38D-01  8.74D-01
 E= -1973.07472095129     Delta-E=       -0.000000333378 Rises=F Damp=F
 DIIS: error= 5.73D-06 at cycle  10 NSaved=  10.
 NSaved=10 IEnMin=10 EnMin= -1973.07472095129     IErMin=10 ErrMin= 5.73D-06
 ErrMax= 5.73D-06  0.00D+00 EMaxC= 1.00D-01 BMatC= 2.12D-08 BMatP= 1.78D-07
 IDIUse=1 WtCom= 1.00D+00 WtEn= 0.00D+00
 Coeff-Com: -0.423D-03 0.887D-03 0.173D-02 0.246D-02 0.172D-02-0.214D-01
 Coeff-Com: -0.453D-01-0.200D-01 0.246D+00 0.835D+00
 Coeff:     -0.423D-03 0.887D-03 0.173D-02 0.246D-02 0.172D-02-0.214D-01
 Coeff:     -0.453D-01-0.200D-01 0.246D+00 0.835D+00
 Gap=     0.289 Goal=   None    Shift=    0.000
 RMSDP=9.40D-06 MaxDP=7.83D-04 DE=-3.33D-07 OVMax= 1.50D-04

 Cycle  11  Pass 1  IDiag  1:
 RMSU=  4.40D-06    CP:  5.90D-01  7.70D-01  9.47D-01  8.48D-01  1.26D+00
                    CP:  1.20D+00  1.15D+00  9.71D-01  1.02D+00  9.98D-01
 E= -1973.07472101233     Delta-E=       -0.000000061045 Rises=F Damp=F
 DIIS: error= 2.81D-06 at cycle  11 NSaved=  11.
 NSaved=11 IEnMin=11 EnMin= -1973.07472101233     IErMin=11 ErrMin= 2.81D-06
 ErrMax= 2.81D-06  0.00D+00 EMaxC= 1.00D-01 BMatC= 3.28D-09 BMatP= 2.12D-08
 IDIUse=1 WtCom= 1.00D+00 WtEn= 0.00D+00
 Coeff-Com: -0.705D-05 0.373D-05 0.113D-03 0.365D-03 0.123D-02 0.518D-03
 Coeff-Com: -0.828D-02-0.545D-01-0.477D-01 0.243D+00 0.866D+00
 Coeff:     -0.705D-05 0.373D-05 0.113D-03 0.365D-03 0.123D-02 0.518D-03
 Coeff:     -0.828D-02-0.545D-01-0.477D-01 0.243D+00 0.866D+00
 Gap=     0.289 Goal=   None    Shift=    0.000
 RMSDP=2.29D-06 MaxDP=1.36D-04 DE=-6.10D-08 OVMax= 7.27D-05

 Cycle  12  Pass 1  IDiag  1:
 RMSU=  1.86D-06    CP:  5.90D-01  7.70D-01  9.47D-01  8.48D-01  1.26D+00
                    CP:  1.20D+00  1.15D+00  9.67D-01  1.04D+00  1.01D+00
                    CP:  1.08D+00
 E= -1973.07472102362     Delta-E=       -0.000000011287 Rises=F Damp=F
 DIIS: error= 1.49D-06 at cycle  12 NSaved=  12.
 NSaved=12 IEnMin=12 EnMin= -1973.07472102362     IErMin=12 ErrMin= 1.49D-06
 ErrMax= 1.49D-06  0.00D+00 EMaxC= 1.00D-01 BMatC= 6.34D-10 BMatP= 3.28D-09
 IDIUse=1 WtCom= 1.00D+00 WtEn= 0.00D+00
 Coeff-Com:  0.585D-04-0.126D-03-0.215D-03-0.220D-03 0.227D-03 0.348D-02
 Coeff-Com:  0.382D-02-0.168D-01-0.574D-01-0.516D-01 0.301D+00 0.818D+00
 Coeff:      0.585D-04-0.126D-03-0.215D-03-0.220D-03 0.227D-03 0.348D-02
 Coeff:      0.382D-02-0.168D-01-0.574D-01-0.516D-01 0.301D+00 0.818D+00
 Gap=     0.289 Goal=   None    Shift=    0.000
 RMSDP=1.64D-06 MaxDP=1.56D-04 DE=-1.13D-08 OVMax= 3.33D-05

 Cycle  13  Pass 1  IDiag  1:
 RMSU=  6.99D-07    CP:  5.90D-01  7.70D-01  9.47D-01  8.48D-01  1.26D+00
                    CP:  1.20D+00  1.15D+00  9.67D-01  1.03D+00  1.02D+00
                    CP:  1.16D+00  1.16D+00
 E= -1973.07472102565     Delta-E=       -0.000000002031 Rises=F Damp=F
 DIIS: error= 3.73D-07 at cycle  13 NSaved=  13.
 NSaved=13 IEnMin=13 EnMin= -1973.07472102565     IErMin=13 ErrMin= 3.73D-07
 ErrMax= 3.73D-07  0.00D+00 EMaxC= 1.00D-01 BMatC= 1.61D-10 BMatP= 6.34D-10
 IDIUse=1 WtCom= 1.00D+00 WtEn= 0.00D+00
 Coeff-Com:  0.301D-04-0.630D-04-0.132D-03-0.180D-03-0.123D-03 0.164D-02
 Coeff-Com:  0.359D-02 0.325D-02-0.168D-01-0.696D-01-0.300D-01 0.354D+00
 Coeff-Com:  0.755D+00
 Coeff:      0.301D-04-0.630D-04-0.132D-03-0.180D-03-0.123D-03 0.164D-02
 Coeff:      0.359D-02 0.325D-02-0.168D-01-0.696D-01-0.300D-01 0.354D+00
 Coeff:      0.755D+00
 Gap=     0.289 Goal=   None    Shift=    0.000
 RMSDP=4.75D-07 MaxDP=3.12D-05 DE=-2.03D-09 OVMax= 1.20D-05

 Cycle  14  Pass 1  IDiag  1:
 RMSU=  3.07D-07    CP:  5.90D-01  7.70D-01  9.47D-01  8.48D-01  1.26D+00
                    CP:  1.20D+00  1.15D+00  9.65D-01  1.03D+00  1.02D+00
                    CP:  1.18D+00  1.23D+00  8.76D-01
 E= -1973.07472102598     Delta-E=       -0.000000000332 Rises=F Damp=F
 DIIS: error= 2.00D-07 at cycle  14 NSaved=  14.
 NSaved=14 IEnMin=14 EnMin= -1973.07472102598     IErMin=14 ErrMin= 2.00D-07
 ErrMax= 2.00D-07  0.00D+00 EMaxC= 1.00D-01 BMatC= 2.53D-11 BMatP= 1.61D-10
 IDIUse=1 WtCom= 1.00D+00 WtEn= 0.00D+00
 Coeff-Com: -0.880D-06 0.267D-05-0.774D-05-0.195D-04-0.892D-04-0.407D-04
 Coeff-Com:  0.659D-03 0.442D-02 0.435D-02-0.179D-01-0.682D-01-0.216D-01
 Coeff-Com:  0.294D+00 0.804D+00
 Coeff:     -0.880D-06 0.267D-05-0.774D-05-0.195D-04-0.892D-04-0.407D-04
 Coeff:      0.659D-03 0.442D-02 0.435D-02-0.179D-01-0.682D-01-0.216D-01
 Coeff:      0.294D+00 0.804D+00
 Gap=     0.289 Goal=   None    Shift=    0.000
 RMSDP=1.87D-07 MaxDP=1.07D-05 DE=-3.32D-10 OVMax= 4.93D-06

 Cycle  15  Pass 1  IDiag  1:
 RMSU=  1.42D-07    CP:  5.90D-01  7.70D-01  9.47D-01  8.48D-01  1.26D+00
                    CP:  1.20D+00  1.15D+00  9.65D-01  1.03D+00  1.01D+00
                    CP:  1.19D+00  1.22D+00  9.34D-01  1.03D+00
 E= -1973.07472102607     Delta-E=       -0.000000000085 Rises=F Damp=F
 DIIS: error= 6.49D-08 at cycle  15 NSaved=  15.
 NSaved=15 IEnMin=15 EnMin= -1973.07472102607     IErMin=15 ErrMin= 6.49D-08
 ErrMax= 6.49D-08  0.00D+00 EMaxC= 1.00D-01 BMatC= 5.66D-12 BMatP= 2.53D-11
 IDIUse=1 WtCom= 1.00D+00 WtEn= 0.00D+00
 Coeff-Com: -0.519D-05 0.112D-04 0.167D-04 0.207D-04-0.261D-04-0.267D-03
 Coeff-Com: -0.228D-03 0.158D-02 0.472D-02 0.156D-02-0.276D-01-0.625D-01
 Coeff-Com:  0.281D-01 0.393D+00 0.661D+00
 Coeff:     -0.519D-05 0.112D-04 0.167D-04 0.207D-04-0.261D-04-0.267D-03
 Coeff:     -0.228D-03 0.158D-02 0.472D-02 0.156D-02-0.276D-01-0.625D-01
 Coeff:      0.281D-01 0.393D+00 0.661D+00
 Gap=     0.289 Goal=   None    Shift=    0.000
 RMSDP=1.33D-07 MaxDP=1.21D-05 DE=-8.46D-11 OVMax= 1.41D-06

 Cycle  16  Pass 1  IDiag  1:
 RMSU=  5.93D-08    CP:  5.90D-01  7.70D-01  9.47D-01  8.48D-01  1.26D+00
                    CP:  1.20D+00  1.15D+00  9.65D-01  1.03D+00  1.01D+00
                    CP:  1.18D+00  1.21D+00  9.59D-01  1.14D+00  8.44D-01
 E= -1973.07472102609     Delta-E=       -0.000000000019 Rises=F Damp=F
 DIIS: error= 1.81D-08 at cycle  16 NSaved=  16.
 NSaved=16 IEnMin=16 EnMin= -1973.07472102609     IErMin=16 ErrMin= 1.81D-08
 ErrMax= 1.81D-08  0.00D+00 EMaxC= 1.00D-01 BMatC= 6.95D-13 BMatP= 5.66D-12
 IDIUse=1 WtCom= 1.00D+00 WtEn= 0.00D+00
 Coeff-Com: -0.195D-05 0.410D-05 0.764D-05 0.116D-04-0.190D-05-0.111D-03
 Coeff-Com: -0.190D-03 0.541D-04 0.159D-02 0.316D-02-0.222D-02-0.247D-01
 Coeff-Com: -0.317D-01 0.528D-01 0.284D+00 0.717D+00
 Coeff:     -0.195D-05 0.410D-05 0.764D-05 0.116D-04-0.190D-05-0.111D-03
 Coeff:     -0.190D-03 0.541D-04 0.159D-02 0.316D-02-0.222D-02-0.247D-01
 Coeff:     -0.317D-01 0.528D-01 0.284D+00 0.717D+00
 Gap=     0.289 Goal=   None    Shift=    0.000
 RMSDP=3.78D-08 MaxDP=2.91D-06 DE=-1.91D-11 OVMax= 4.44D-07

 Cycle  17  Pass 1  IDiag  1:
 RMSU=  1.59D-08    CP:  5.90D-01  7.70D-01  9.47D-01  8.48D-01  1.26D+00
                    CP:  1.20D+00  1.15D+00  9.65D-01  1.03D+00  1.02D+00
                    CP:  1.18D+00  1.20D+00  9.63D-01  1.17D+00  9.25D-01
                    CP:  1.00D+00
 E= -1973.07472102606     Delta-E=        0.000000000022 Rises=F Damp=F
 DIIS: error= 9.64D-09 at cycle  17 NSaved=  17.
 NSaved=17 IEnMin=16 EnMin= -1973.07472102609     IErMin=17 ErrMin= 9.64D-09
 ErrMax= 9.64D-09  0.00D+00 EMaxC= 1.00D-01 BMatC= 8.89D-14 BMatP= 6.95D-13
 IDIUse=1 WtCom= 1.00D+00 WtEn= 0.00D+00
 Coeff-Com: -0.378D-07 0.401D-07 0.698D-06 0.204D-05 0.299D-05-0.676D-05
 Coeff-Com: -0.509D-04-0.253D-03-0.945D-04 0.963D-03 0.382D-02 0.673D-03
 Coeff-Com: -0.159D-01-0.456D-01-0.557D-02 0.277D+00 0.785D+00
 Coeff:     -0.378D-07 0.401D-07 0.698D-06 0.204D-05 0.299D-05-0.676D-05
 Coeff:     -0.509D-04-0.253D-03-0.945D-04 0.963D-03 0.382D-02 0.673D-03
 Coeff:     -0.159D-01-0.456D-01-0.557D-02 0.277D+00 0.785D+00
 Gap=     0.289 Goal=   None    Shift=    0.000
 RMSDP=2.76D-08 MaxDP=2.37D-06 DE= 2.18D-11 OVMax= 1.89D-07

 Cycle  18  Pass 1  IDiag  1:
 RMSU=  6.25D-09    CP:  5.90D-01  7.70D-01  9.47D-01  8.48D-01  1.26D+00
                    CP:  1.20D+00  1.15D+00  9.65D-01  1.03D+00  1.02D+00
                    CP:  1.18D+00  1.20D+00  9.56D-01  1.17D+00  9.54D-01
                    CP:  1.11D+00  1.23D+00
 E= -1973.07472102610     Delta-E=       -0.000000000032 Rises=F Damp=F
 DIIS: error= 2.25D-09 at cycle  18 NSaved=  18.
 NSaved=18 IEnMin=18 EnMin= -1973.07472102610     IErMin=18 ErrMin= 2.25D-09
 ErrMax= 2.25D-09  0.00D+00 EMaxC= 1.00D-01 BMatC= 7.85D-15 BMatP= 8.89D-14
 IDIUse=1 WtCom= 1.00D+00 WtEn= 0.00D+00
 Coeff-Com:  0.188D-06-0.402D-06-0.572D-06-0.543D-06 0.103D-05 0.977D-05
 Coeff-Com:  0.428D-05-0.805D-04-0.180D-03-0.398D-04 0.144D-02 0.250D-02
 Coeff-Com: -0.101D-02-0.204D-01-0.357D-01 0.943D-02 0.239D+00 0.805D+00
 Coeff:      0.188D-06-0.402D-06-0.572D-06-0.543D-06 0.103D-05 0.977D-05
 Coeff:      0.428D-05-0.805D-04-0.180D-03-0.398D-04 0.144D-02 0.250D-02
 Coeff:     -0.101D-02-0.204D-01-0.357D-01 0.943D-02 0.239D+00 0.805D+00
 Gap=     0.289 Goal=   None    Shift=    0.000
 RMSDP=7.49D-09 MaxDP=5.13D-07 DE=-3.18D-11 OVMax= 7.03D-08

 SCF Done:  E(RwB97XD) =  -1973.07472103     A.U. after   18 cycles
            NFock= 18  Conv=0.75D-08     -V/T= 2.0067
 KE= 1.960020616230D+03 PE=-9.880191365712D+03 EE= 3.325881930620D+03
 Leave Link  502 at Tue Mar  3 15:08:59 2026, MaxMem=  2147483648 cpu:            6630.3 elap:             415.0
 (Enter /opt/g16/l601.exe)
 Copying SCF densities to generalized density rwf, IOpCl= 0 IROHF=0.

 **********************************************************************

            Population analysis using the SCF Density.

 **********************************************************************

 Orbital symmetries:
       Occupied  (A) (A) (A) (A) (A) (A) (A) (A) (A) (A) (A) (A)
                 (A) (A) (A) (A) (A) (A) (A) (A) (A) (A) (A) (A)
                 (A) (A) (A) (A) (A) (A) (A) (A) (A) (A) (A) (A)
                 (A) (A) (A) (A) (A) (A) (A) (A) (A) (A) (A) (A)
                 (A) (A) (A) (A) (A) (A) (A) (A) (A) (A) (A) (A)
                 (A) (A) (A) (A) (A) (A) (A) (A) (A) (A) (A) (A)
                 (A) (A) (A) (A) (A) (A) (A) (A) (A) (A) (A) (A)
                 (A) (A) (A) (A) (A) (A) (A) (A) (A) (A) (A) (A)
                 (A) (A) (A) (A)
       Virtual   (A) (A) (A) (A) (A) (A) (A) (A) (A) (A) (A) (A)
                 (A) (A) (A) (A) (A) (A) (A) (A) (A) (A) (A) (A)
                 (A) (A) (A) (A) (A) (A) (A) (A) (A) (A) (A) (A)
                 (A) (A) (A) (A) (A) (A) (A) (A) (A) (A) (A) (A)
                 (A) (A) (A) (A) (A) (A) (A) (A) (A) (A) (A) (A)
                 (A) (A) (A) (A) (A) (A) (A) (A) (A) (A) (A) (A)
                 (A) (A) (A) (A) (A) (A) (A) (A) (A) (A) (A) (A)
                 (A) (A) (A) (A) (A) (A) (A) (A) (A) (A) (A) (A)
                 (A) (A) (A) (A) (A) (A) (A) (A) (A) (A) (A) (A)
                 (A) (A) (A) (A) (A) (A) (A) (A) (A) (A) (A) (A)
                 (A) (A) (A) (A) (A) (A) (A) (A) (A) (A) (A) (A)
                 (A) (A) (A) (A) (A) (A) (A) (A) (A) (A) (A) (A)
                 (A) (A) (A) (A) (A) (A) (A) (A) (A) (A) (A) (A)
                 (A) (A) (A) (A) (A) (A) (A) (A) (A) (A) (A) (A)
                 (A) (A) (A) (A) (A) (A) (A) (A) (A) (A) (A) (A)
                 (A) (A) (A) (A) (A) (A) (A) (A) (A) (A) (A) (A)
                 (A) (A) (A) (A) (A) (A) (A) (A) (A) (A) (A) (A)
                 (A) (A) (A) (A) (A) (A) (A) (A) (A) (A) (A) (A)
                 (A) (A) (A) (A) (A) (A) (A) (A) (A) (A) (A) (A)
                 (A) (A) (A) (A) (A) (A) (A) (A) (A) (A) (A) (A)
                 (A) (A) (A) (A) (A) (A) (A) (A) (A) (A) (A) (A)
                 (A) (A) (A) (A) (A) (A) (A) (A) (A) (A) (A) (A)
                 (A) (A) (A) (A) (A) (A) (A) (A) (A) (A) (A) (A)
                 (A) (A) (A) (A) (A) (A) (A) (A) (A) (A) (A) (A)
                 (A) (A) (A) (A) (A) (A) (A) (A) (A) (A) (A) (A)
                 (A) (A) (A) (A) (A) (A) (A) (A) (A) (A) (A) (A)
                 (A) (A) (A) (A) (A) (A) (A) (A) (A) (A) (A) (A)
                 (A) (A) (A) (A) (A) (A) (A) (A) (A) (A) (A) (A)
                 (A) (A) (A) (A) (A) (A) (A) (A) (A) (A) (A) (A)
                 (A) (A) (A) (A) (A) (A) (A) (A) (A) (A) (A) (A)
                 (A) (A) (A) (A) (A) (A) (A) (A) (A) (A) (A) (A)
                 (A) (A) (A) (A) (A) (A) (A) (A) (A) (A) (A) (A)
                 (A) (A) (A) (A) (A) (A) (A) (A) (A) (A) (A) (A)
                 (A) (A) (A) (A) (A) (A) (A) (A) (A) (A) (A) (A)
                 (A) (A) (A) (A) (A) (A) (A) (A)
 The electronic state is 1-A.
 Alpha  occ. eigenvalues -- -101.72005-101.71644 -19.31851 -19.31510 -19.25764
 Alpha  occ. eigenvalues --  -19.25619 -14.51994 -10.43289 -10.43196 -10.38351
 Alpha  occ. eigenvalues --  -10.38308 -10.37947 -10.37747 -10.35748 -10.35153
 Alpha  occ. eigenvalues --  -10.32835 -10.32749 -10.31875 -10.31817 -10.31798
 Alpha  occ. eigenvalues --  -10.31723 -10.31715 -10.31158 -10.30665 -10.30026
 Alpha  occ. eigenvalues --   -9.58770  -9.58496  -7.33686  -7.33414  -7.32700
 Alpha  occ. eigenvalues --   -7.32659  -7.32404  -7.32379  -1.18677  -1.18421
 Alpha  occ. eigenvalues --   -1.09917  -1.09735  -1.09478  -1.00117  -0.94328
 Alpha  occ. eigenvalues --   -0.93431  -0.93131  -0.91852  -0.87611  -0.85870
 Alpha  occ. eigenvalues --   -0.83970  -0.83727  -0.82776  -0.80821  -0.76862
 Alpha  occ. eigenvalues --   -0.75332  -0.73033  -0.70598  -0.69354  -0.68923
 Alpha  occ. eigenvalues --   -0.65235  -0.62798  -0.62505  -0.60302  -0.59295
 Alpha  occ. eigenvalues --   -0.58262  -0.57753  -0.56719  -0.55944  -0.55545
 Alpha  occ. eigenvalues --   -0.55069  -0.54822  -0.53850  -0.53108  -0.52493
 Alpha  occ. eigenvalues --   -0.51526  -0.51213  -0.50881  -0.50567  -0.50290
 Alpha  occ. eigenvalues --   -0.49695  -0.49462  -0.48678  -0.48457  -0.48023
 Alpha  occ. eigenvalues --   -0.46985  -0.45899  -0.45128  -0.44619  -0.44288
 Alpha  occ. eigenvalues --   -0.43879  -0.43103  -0.42834  -0.41629  -0.40774
 Alpha  occ. eigenvalues --   -0.40367  -0.38344  -0.38067  -0.37664  -0.36056
 Alpha  occ. eigenvalues --   -0.35580  -0.34696  -0.32509  -0.31742  -0.28892
 Alpha virt. eigenvalues --    0.00002   0.04210   0.04955   0.05285   0.05681
 Alpha virt. eigenvalues --    0.05839   0.06679   0.07185   0.07807   0.08168
 Alpha virt. eigenvalues --    0.08346   0.09054   0.09292   0.09577   0.09907
 Alpha virt. eigenvalues --    0.10020   0.10361   0.10984   0.11289   0.12026
 Alpha virt. eigenvalues --    0.12266   0.12519   0.12689   0.13022   0.13464
 Alpha virt. eigenvalues --    0.13685   0.14112   0.14824   0.15092   0.15153
 Alpha virt. eigenvalues --    0.15230   0.15497   0.15756   0.16213   0.16516
 Alpha virt. eigenvalues --    0.17037   0.17212   0.17757   0.17823   0.18327
 Alpha virt. eigenvalues --    0.18714   0.19135   0.19455   0.19669   0.20070
 Alpha virt. eigenvalues --    0.20172   0.20702   0.20944   0.21235   0.22025
 Alpha virt. eigenvalues --    0.22238   0.22513   0.22944   0.23392   0.23643
 Alpha virt. eigenvalues --    0.23907   0.24191   0.24474   0.24853   0.25257
 Alpha virt. eigenvalues --    0.25556   0.25653   0.26069   0.26164   0.26470
 Alpha virt. eigenvalues --    0.26808   0.26944   0.27353   0.27493   0.27887
 Alpha virt. eigenvalues --    0.28308   0.28523   0.28567   0.28789   0.29147
 Alpha virt. eigenvalues --    0.29473   0.30068   0.30203   0.30877   0.30967
 Alpha virt. eigenvalues --    0.31120   0.31466   0.31683   0.32176   0.32331
 Alpha virt. eigenvalues --    0.32550   0.32710   0.33139   0.33309   0.33576
 Alpha virt. eigenvalues --    0.34142   0.34166   0.34646   0.34970   0.35332
 Alpha virt. eigenvalues --    0.35601   0.35879   0.36341   0.36504   0.36769
 Alpha virt. eigenvalues --    0.37356   0.37379   0.37801   0.38330   0.38419
 Alpha virt. eigenvalues --    0.38674   0.38951   0.39599   0.39678   0.40405
 Alpha virt. eigenvalues --    0.40936   0.41066   0.42043   0.42292   0.42641
 Alpha virt. eigenvalues --    0.42900   0.43636   0.43907   0.44048   0.44619
 Alpha virt. eigenvalues --    0.44833   0.45284   0.46419   0.46953   0.47176
 Alpha virt. eigenvalues --    0.47317   0.47803   0.48113   0.48483   0.48948
 Alpha virt. eigenvalues --    0.49454   0.50401   0.51049   0.51661   0.53345
 Alpha virt. eigenvalues --    0.55073   0.55687   0.56269   0.57427   0.58057
 Alpha virt. eigenvalues --    0.59200   0.60339   0.61831   0.62498   0.64335
 Alpha virt. eigenvalues --    0.65601   0.66737   0.68596   0.71406   0.71879
 Alpha virt. eigenvalues --    0.73565   0.74610   0.75431   0.76460   0.76876
 Alpha virt. eigenvalues --    0.77318   0.77594   0.78019   0.78714   0.79077
 Alpha virt. eigenvalues --    0.79340   0.79800   0.80344   0.80662   0.81468
[...]
 00506773,0.00366283,0.02287557,0.09306563,0.17803586,-0.00000354,-0.00
 003605,-0.00000418,-0.00000351,0.00006520,-0.00000881,-0.00000022,-0.0
 0000024,-0.00000193,0.00000676,0.00001842,0.00003577,0.00000028,-0.000
 02572,-0.00001261,0.00000781,0.00000967,0.00000579,-0.00000386,0.00000
 834,-0.00000684,-0.00000386,-0.00000312,0.00000081,-0.00000668,-0.0000
 0633,0.00000522,-0.00016152,0.00021310,-0.00027529,-0.00014941,-0.0000
 9241,0.00017385,-0.00104157,-0.00022452,0.00086524,0.00014221,0.000028
 40,-0.00009906,0.00023879,-0.00009996,0.00004517,-0.00123993,0.0024219
 5,-0.00579054,0.00097445,-0.00066045,0.00185558,-0.04408975,0.00333198
 ,0.01549000,0.00014075,0.00002015,-0.00010696,-0.00005303,-0.00001910,
 0.00006722,-0.00011145,0.00002710,0.00001505,-0.15714092,-0.01097458,0
 .06664923,-0.00427684,-0.00037644,0.00485861,0.00412012,0.00000704,-0.
 00077611,0.00003492,-0.00000219,-0.00002312,-0.00000616,0.00000247,-0.
 00000133,-0.00000312,0.00000095,0.00000493,-0.00000377,-0.00000172,0.0
 0000404,-0.00026914,0.00003674,-0.00001761,0.00000989,0.00000065,0.000
 00960,-0.00004927,0.00003747,0.00009288,0.00013001,0.00002370,0.000116
 37,0.00013923,-0.00019482,-0.00000359,-0.00006730,0.00001757,-0.000027
 87,-0.00000967,-0.00000326,0.00000559,-0.00000472,0.00000282,-0.000000
 10,-0.00000572,0.00000160,-0.00000141,0.00000421,-0.00000029,-0.000001
 42,0.00000964,-0.00001280,0.00000925,-0.00000090,-0.00000213,0.0000116
 6,-0.00000395,-0.00002287,-0.00002026,0.53887160,0.00000104,0.00000873
 ,-0.00001094,-0.00000819,-0.00002912,0.00000968,0.00000013,-0.00002508
 ,0.00003938,-0.00000060,0.00001629,0.00000473,0.00000413,0.00001575,0.
 00000928,-0.00001444,0.00000121,-0.00001083,0.00000300,-0.00000602,0.0
 0000009,0.00000379,0.00000220,0.00000129,0.00000978,0.00000290,-0.0000
 0623,0.00010565,-0.00012124,0.00017593,0.00007437,0.00003598,-0.000085
 59,0.00063932,-0.00000216,-0.00031113,-0.00007141,0.00001430,0.0000483
 7,-0.00005838,0.00015339,-0.00038913,0.00030678,-0.00133424,0.00343896
 ,-0.00051049,0.00153562,-0.00083644,0.01836290,0.00082903,-0.00737176,
 -0.00006136,-0.00000643,0.00005069,0.00002112,0.00000491,-0.00002430,0
 .00005494,-0.00001667,-0.00000478,-0.01604826,-0.08833667,0.00704366,-
 0.02620464,0.00221283,0.01862587,0.01642505,0.00265561,-0.01081316,-0.
 00001366,0.00000179,0.00001015,0.00000343,-0.00000055,0.00000039,0.000
 00127,-0.00000028,-0.00000286,0.00000161,0.00000002,-0.00000163,0.0001
 4177,-0.00009984,0.00013597,0.00003234,0.00000724,0.00000157,-0.000045
 18,0.00018524,0.00010347,-0.00009067,0.00011480,-0.00006606,0.00017030
 ,-0.00014262,-0.00003131,-0.00002987,-0.00006441,-0.00002439,0.0000026
 2,-0.00000065,-0.00000329,0.00000378,-0.00000083,-0.00000095,0.0000002
 7,-0.00000207,0.00000144,-0.00000115,0.00000040,0.00000571,-0.00001936
 ,0.00000411,-0.00000160,0.00001328,0.00001173,-0.00002980,0.00000157,-
 0.00000204,-0.00000796,-0.00447824,0.59081137,-0.00000718,-0.00003722,
 0.00000135,0.00001074,0.00006673,-0.00001132,0.00000369,-0.00001899,0.
 00005601,0.00000675,0.00002731,0.00004400,-0.00000033,-0.00002618,-0.0
 0001278,0.00000380,0.00001055,0.00000233,0.00000410,0.00000482,-0.0000
 1096,-0.00000505,-0.00000299,0.00000065,-0.00000460,-0.00000454,0.0000
 0200,-0.00018230,0.00022949,-0.00032006,-0.00015600,-0.00009373,0.0001
 8098,-0.00114516,-0.00000027,0.00052654,0.00018559,0.00003673,-0.00013
 206,0.00008302,-0.00036547,0.00060286,-0.00046117,0.00247633,-0.006448
 99,0.00145160,-0.00077031,0.00253675,-0.02569287,0.00072240,0.01361418
 ,0.00012905,0.00002617,-0.00010645,-0.00004540,-0.00002117,0.00005922,
 -0.00010276,0.00002572,0.00001228,0.08052495,0.00427075,-0.14372050,0.
 00681573,-0.00122697,-0.00453372,0.02338047,0.00400744,-0.01340083,0.0
 0002677,-0.00000099,-0.00001910,-0.00000584,0.00000189,-0.00000047,-0.
 00000300,0.00000019,0.00000413,-0.00000371,-0.00000103,0.00000373,-0.0
 0036633,0.00015162,-0.00022242,-0.00004850,0.00000457,0.00000871,0.000
 03248,0.00002229,0.00011303,-0.00003241,0.00003888,-0.00004302,0.00002
 109,-0.00004778,0.00001710,0.00003407,-0.00000664,-0.00004733,-0.00000
 930,-0.00000491,0.00000235,-0.00000443,0.00000167,-0.00000069,-0.00000
 641,0.00000449,-0.00000133,0.00000405,0.00000179,-0.00000418,0.0000274
 1,-0.00001767,0.00000391,-0.00000035,0.00001247,-0.00003770,-0.0000027
 7,-0.00003344,-0.00003596,0.04079112,0.00148529,0.56539375,-0.00001115
 ,-0.00002554,0.00000272,0.00000338,0.00003178,-0.00001021,0.00000420,0
 .00000692,0.00000671,0.00000814,0.00002618,0.00004584,-0.00000069,-0.0
 0002206,-0.00001730,0.00000701,0.00001710,-0.00000236,0.00000967,0.000
 00610,-0.00001398,-0.00000484,-0.00000512,-0.00000097,-0.00000592,-0.0
 0000524,0.00000671,-0.00004970,0.00012973,-0.00015164,-0.00012255,-0.0
 0007249,0.00014625,-0.00047582,0.00003838,0.00009019,0.00019173,0.0000
 3066,-0.00014594,0.00015792,-0.00021585,0.00036102,0.00126316,0.000746
 07,-0.00238430,-0.00009794,-0.00035796,0.00098054,-0.00763171,-0.00011
 196,0.00491971,0.00018340,-0.00000028,-0.00009979,-0.00006213,-0.00001
 616,0.00006837,-0.00012950,0.00003489,0.00000761,-0.01665896,0.0091662
 8,-0.01728583,0.00041780,-0.00078110,-0.00015716,0.00068231,0.00048825
 ,0.00031531,0.00004584,-0.00000336,-0.00002600,-0.00000694,0.00000298,
 -0.00000227,-0.00000359,0.00000093,0.00000624,-0.00000400,-0.00000228,
 0.00000469,-0.00037325,0.00012331,-0.00012251,-0.00001574,-0.00000208,
 0.00001003,0.00001227,-0.00000787,0.00001176,0.00000572,-0.00001315,0.
 00003691,-0.00000693,-0.00002771,0.00002898,-0.00002144,0.00002834,-0.
 00003215,-0.00001172,-0.00000136,0.00000305,-0.00000387,0.00000305,0.0
 0000095,-0.00000518,0.00000132,-0.00000174,0.00000509,-0.00000038,-0.0
 0000220,0.00002859,-0.00001959,-0.00000149,-0.00001176,-0.00000460,0.0
 0000510,-0.00000627,-0.00003152,-0.00002825,-0.22614800,0.07288551,-0.
 10403593,0.24546537,0.00000156,0.00000489,0.00000285,0.00000167,-0.000
 00383,-0.00000035,0.00000023,0.00000326,-0.00000549,-0.00000033,-0.000
 00656,-0.00000873,0.00000184,0.00000191,0.00000075,0.00000177,-0.00000
 230,0.00000260,-0.00000222,-0.00000082,0.00000253,-0.00000199,0.000000
 60,0.00000018,-0.00000186,0.00000178,-0.00000015,-0.00001873,-0.000018
 15,-0.00001448,0.00002524,0.00001303,-0.00003145,-0.00003217,-0.000052
 94,0.00002451,-0.00004784,-0.00000986,0.00004217,-0.00005802,-0.000002
 79,0.00005458,-0.00034506,0.00057543,0.00011202,0.00008938,-0.00010787
 ,-0.00015016,-0.00052486,0.00098295,0.00013274,-0.00005583,0.00000503,
 0.00002350,0.00001840,0.00000140,-0.00002050,0.00003587,-0.00001043,-0
 .00000137,-0.00233911,-0.00114078,-0.00139253,0.00012416,-0.00001063,-
 0.00023900,0.00017865,-0.00002751,-0.00021536,-0.00001446,0.00000231,0
 .00000799,0.00000185,-0.00000086,0.00000096,0.00000095,-0.00000040,-0.
 00000210,0.00000108,0.00000056,-0.00000136,0.00010194,0.00000210,-0.00
 002126,-0.00001282,0.00000387,-0.00000250,0.00000614,-0.00006813,-0.00
 008448,-0.00001910,-0.00004291,-0.00001614,-0.00008259,0.00011593,0.00
 000720,0.00003295,0.00000976,0.00002334,0.00000406,-0.00000076,-0.0000
 0215,0.00000160,-0.00000108,-0.00000037,0.00000149,0.00000007,0.000000
 34,-0.00000183,0.00000095,-0.00000042,0.00000382,0.00000418,-0.0000001
 6,0.00000113,-0.00000061,0.00000197,0.00000169,0.00000504,0.00000495,0
 .07370981,-0.07904737,0.04428840,-0.08079897,0.08085642,0.00000003,0.0
 0000379,-0.00000226,-0.00001236,-0.00001255,0.00000634,-0.00000163,0.0
 0000725,-0.00002680,0.00000183,0.00000878,0.00001206,0.00000103,-0.000
 00010,-0.00000022,-0.00000112,-0.00000133,-0.00000052,0.00000135,-0.00
 000018,0.00000035,-0.00000051,-0.00000114,0.00000042,0.00000097,0.0000
 0006,0.00000119,0.00007582,-0.00006172,0.00008804,0.00000623,0.0000047
 9,-0.00000813,0.00032194,0.00000538,-0.00018471,0.00001674,0.00000257,
 -0.00002475,0.00006342,0.00012378,-0.00020909,0.00061886,-0.00048386,0
 .00153242,-0.00029867,0.00008805,-0.00025182,0.00585009,-0.00003977,-0
 .00213198,0.00003708,-0.00001145,-0.00000191,-0.00001139,-0.00000129,0
 .00000882,-0.00001687,0.00000498,-0.00000208,0.01439454,-0.00759566,0.
 01092204,-0.00070277,0.00029569,0.00063171,-0.00084093,-0.00042232,0.0
 0037271,0.00001105,-0.00000103,-0.00000361,-0.00000063,0.00000075,-0.0
 0000113,-0.00000041,0.00000015,0.00000115,-0.00000045,-0.00000068,0.00
 000086,-0.00003667,-0.00003555,0.00009737,0.00003143,-0.00000344,0.000
 00231,-0.00003420,-0.00006650,0.00000712,0.00011293,0.00002647,0.00009
 637,0.00005018,-0.00008546,-0.00002793,-0.00004304,0.00002436,0.000006
 11,-0.00000296,0.00000135,0.00000203,-0.00000055,0.00000067,0.00000068
 ,-0.00000069,-0.00000106,0.00000022,0.00000145,-0.00000184,0.00000210,
 -0.00001267,-0.00000043,0.00000309,-0.00000412,-0.00000664,0.00001817,
 -0.00000166,-0.00000500,-0.00000401,-0.10630703,0.04472645,-0.11354907
 ,0.11462739,-0.04888597,0.11908869,0.00000020,0.00001209,0.00000121,0.
 00001431,-0.00001833,-0.00000149,0.00000319,-0.00000619,0.00002232,-0.
 00000426,-0.00000489,-0.00001283,0.00000214,0.00001451,0.00000275,-0.0
 0000717,0.00000266,-0.00000500,0.00000540,-0.00000664,0.00000092,0.000
 00263,0.00000167,-0.00000031,0.00000483,0.00000329,-0.00000346,-0.0000
 2118,-0.00002806,0.00001259,0.00005750,0.00002991,-0.00006303,0.000074
 84,0.00003846,-0.00013415,-0.00007789,-0.00001959,0.00007046,-0.000151
 54,-0.00005514,0.00019428,-0.00045986,-0.00028141,0.00124814,-0.000352
 53,0.00053811,-0.00074603,0.00300342,-0.00014682,-0.00062432,-0.000082
 66,-0.00000273,0.00005323,0.00002758,0.00001507,-0.00004117,0.00004916
 ,-0.00001111,-0.00000645,-0.00579722,-0.02926240,0.00797947,-0.0040363
 0,0.00049437,0.00326602,0.00100992,0.00066913,-0.00074986,-0.00002016,
 0.00000058,0.00001059,0.00000247,-0.00000132,0.00000093,0.00000165,-0.
 00000063,-0.00000235,0.00000194,0.00000129,-0.00000187,0.00015056,0.00
 003720,-0.00009318,-0.00003756,0.00000277,-0.00000716,0.00000046,-0.00
 007510,-0.00013996,-0.00005530,-0.00006045,-0.00006863,-0.00015285,0.0
 0023939,-0.00002484,0.00008587,0.00000159,0.00003525,0.00000706,-0.000
 00087,-0.00000440,0.00000174,-0.00000137,-0.00000042,0.00000318,0.0000
 0034,-0.00000009,-0.00000291,0.00000237,-0.00000311,0.00001724,0.00000
 178,-0.00001013,0.00000159,0.00000710,-0.00001733,0.00000177,0.0000087
 0,0.00000501,-0.05573884,-0.03989819,0.01071204,0.00596088,0.02662001,
 -0.00639186,0.05820383,-0.00000488,0.00000160,-0.00000124,0.00000593,-
 0.00000842,-0.00000522,-0.00000055,-0.00000591,0.00002308,0.00000188,0
 .00000397,0.00000237,-0.00000318,0.00000898,-0.00000286,-0.00000626,0.
 00000709,-0.00000579,0.00000827,-0.00000448,-0.00000209,0.00000559,0.0
 0000022,-0.00000068,0.00000594,0.00000042,-0.00000169,-0.00002209,-0.0
 0000047,-0.00003907,0.00000133,0.00000550,0.00000335,-0.00011558,0.000
 11191,-0.00016311,0.00001961,-0.00000653,-0.00000057,-0.00004877,-0.00
 017090,0.00031273,0.00034238,-0.00006327,0.00003149,-0.00007047,0.0001
 0658,-0.00022598,-0.00089345,0.00100893,-0.00049481,0.00002076,-0.0000
 1506,0.00001358,-0.00000725,0.00001383,-0.00001122,-0.00002415,0.00001
 215,-0.00000693,0.00109976,-0.00108788,0.00034027,0.00023726,0.0015421
 0,0.00029984,-0.00037206,0.00080912,0.00033751,0.00000690,-0.00000347,
 -0.00000318,-0.00000165,0.00000040,-0.00000098,-0.00000013,-0.00000024
 ,0.00000166,0.00000013,0.00000026,0.00000080,-0.00004405,0.00007786,-0
 .00012765,-0.00003563,-0.00000359,0.00000372,0.00010444,-0.00001349,-0
 .00003657,-0.00011240,-0.00009602,-0.00006551,-0.00010937,0.00014268,0
 .00003212,0.00003238,0.00000886,-0.00000013,-0.00000234,-0.00000352,0.
 00000060,-0.00000078,0.00000053,0.00000023,0.00000025,0.00000079,-0.00
 000122,0.00000089,0.00000203,-0.00000537,0.00002154,-0.00000367,-0.000
 00500,-0.00000331,0.00000700,-0.00001424,-0.00000307,0.00000008,-0.000
 00184,-0.04153894,-0.29417512,0.06837565,-0.00201715,-0.00886384,0.001
 49288,0.04544966,0.31637075,0.00000567,0.00000779,0.00000319,0.0000046
 7,-0.00000596,-0.00000373,-0.00000199,0.00000281,-0.00001187,-0.000001
 72,-0.00001648,-0.00002518,-0.00000052,0.00000353,0.00000440,0.0000037
 6,-0.00000853,0.00000363,-0.00000783,0.00000215,0.00000587,-0.00000049
 ,0.00000165,-0.00000019,-0.00000324,0.00000131,-0.00000011,-0.00000808
 ,-0.00001156,0.00001486,0.00003647,0.00002037,-0.00004501,0.00007021,-
 0.00001263,0.00009394,-0.00006974,-0.00001108,0.00006368,-0.00005243,0
 .00002868,-0.00004171,-0.00022144,0.00013895,-0.00037323,0.00033383,-0
 .00031733,0.00008186,-0.00125696,-0.00112504,0.00088844,-0.00007478,0.
 00000882,0.00003347,0.00002473,0.00000009,-0.00002711,0.00005049,-0.00
 001591,-0.00000158,0.00239966,0.02278012,-0.00657198,0.00383767,-0.000
 59144,-0.00156281,-0.00079756,0.00016543,0.00022218,-0.00001852,0.0000
 0315,0.00001096,0.00000268,-0.00000111,0.00000116,0.00000151,-0.000000
 33,-0.00000313,0.00000139,0.00000051,-0.00000193,0.00015213,-0.0000370
 9,0.00000158,-0.00000779,0.00000350,-0.00000078,0.00007004,0.00002007,
 -0.00002029,-0.00006589,-0.00009546,-0.00003910,-0.00002780,0.00008085
 ,0.00011220,0.00001504,-0.00001471,0.00000618,0.00000525,0.00000015,-0
 .00000095,0.00000327,-0.00000123,-0.00000039,0.00000214,-0.00000085,0.
 00000060,-0.00000185,0.00000139,0.00000073,-0.00000783,0.00001250,0.00
 000033,0.00000083,-0.00000228,0.00000686,0.00000224,0.00001464,0.00001
 603,0.01185548,0.06684237,-0.06972024,0.00371794,0.01464061,-0.0047452
 9,-0.01588447,-0.07591176,0.07240718,-0.00000034,0.00000724,0.00000900
 ,0.00000948,-0.00000015,-0.00000383,-0.00000194,-0.00000728,0.00003116
 ,-0.00000448,-0.00001572,-0.00001727,0.00000068,0.00000321,0.00000287,
 -0.00000091,0.00000049,-0.00000058,0.00000232,-0.00000252,-0.00000031,
 0.00000020,0.00000160,-0.00000060,0.00000162,0.00000250,-0.00000271,0.
 00000033,-0.00001041,0.00002804,0.00004048,0.00001436,-0.00005252,0.00
 010446,0.00000877,-0.00005796,-0.00006561,-0.00000747,0.00005550,-0.00
 011505,-0.00000197,-0.00000297,-0.00060937,-0.00042392,0.00117299,-0.0
 0039634,0.00015833,-0.00077781,0.00320853,-0.00048503,-0.00060477,-0.0
 0007180,0.00000432,0.00003584,0.00002341,0.00000318,-0.00002867,0.0000
 4651,-0.00001266,-0.00000278,0.00325322,0.01794360,0.02560907,0.001076
 32,-0.00010166,-0.00097067,-0.00446549,-0.00050562,0.00295952,-0.00001
 851,0.00000206,0.00000968,0.00000243,-0.00000123,0.00000114,0.00000127
 ,-0.00000053,-0.00000248,0.00000139,0.00000089,-0.00000168,0.00012038,
 -0.00001142,-0.00002475,-0.00001306,0.00000420,-0.00000604,-0.00000625
 ,0.00008157,0.00002420,-0.00004789,0.00003295,-0.00011271,0.00000418,0
 .00002157,-0.00000690,0.00004254,-0.00004368,-0.00000055,0.00000637,0.
 00000115,-0.00000294,0.00000166,-0.00000144,-0.00000054,0.00000159,0.0
 0000040,0.00000052,-0.00000214,0.00000100,-0.00000025,0.00001028,0.000
 00303,-0.00000680,0.00001315,0.00000824,-0.00002532,0.00000401,0.00000
 803,0.00000474,-0.05423399,-0.02171563,-0.03192674,-0.00258286,-0.0166
 0952,-0.02150120,-0.00169715,-0.00192740,-0.00408614,0.05635635,0.0000
 0047,-0.00000577,-0.00000216,-0.00000941,0.00000657,0.00000856,0.00000
 019,0.00001491,-0.00003723,0.00000234,0.00000308,0.00001206,0.00000101
 ,-0.00000954,-0.00000142,0.00000466,-0.00000127,0.00000384,-0.00000227
 ,0.00000318,-0.00000122,-0.00000366,-0.00000172,0.00000046,-0.00000378
 ,-0.00000211,0.00000314,0.00002216,0.00000548,0.00000761,-0.00003417,-
 0.00001669,0.00004220,0.00000572,-0.00003123,0.00007643,0.00004710,0.0
 0000457,-0.00005657,0.00010685,0.00011853,-0.00015586,0.00013598,0.000
 08235,-0.00017149,-0.00008877,-0.00017665,0.00030530,0.00029358,-0.000
 15082,-0.00006765,0.00005571,0.00000230,-0.00004202,-0.00001802,-0.000
 00898,0.00003441,-0.00002992,0.00000674,0.00000681,0.00083775,0.001996
 63,0.00321552,0.00068411,0.00055709,0.00042252,-0.00081091,0.00122997,
 0.00045697,0.00001274,-0.00000128,-0.00000835,-0.00000141,0.00000052,-
 0.00000048,-0.00000125,0.00000066,0.00000198,-0.00000139,-0.00000056,0
 .00000105,-0.00009386,-0.00002602,0.00008876,0.00003150,-0.00000503,-0
 .00000239,-0.00009687,-0.00011423,-0.00003561,0.00019562,0.00006008,0.
 00013376,-0.00000428,-0.00008904,-0.00007927,-0.00004263,0.00004351,0.
 00001197,-0.00000295,0.00000256,0.00000117,-0.00000272,0.00000067,0.00
 000088,-0.00000098,-0.00000022,-0.00000018,0.00000096,-0.00000352,0.00
 000221,-0.00001391,-0.00000535,0.00000678,-0.00000347,-0.00001125,0.00
 002758,-0.00000058,-0.00000574,-0.00000284,-0.02120899,-0.13521203,-0.
 12361336,0.00077600,0.00682895,0.01090675,-0.00431083,-0.01571776,-0.0
 2660066,0.02357260,0.14062841,0.00000622,0.00000439,-0.00001219,-0.000
 00765,-0.00001782,0.00000872,0.00000145,0.00000683,-0.00002753,-0.0000
 0547,-0.00001773,-0.00003043,-0.00000197,0.00001359,0.00000791,-0.0000
 0196,-0.00000677,-0.00000004,-0.00000924,-0.00000012,0.00000825,0.0000
 0536,0.00000266,-0.00000053,0.00000027,-0.00000083,-0.00000091,-0.0000
 0029,-0.00005297,0.00001548,0.00003479,0.00002983,-0.00003225,0.000099
 31,-0.00011233,0.00016262,-0.00007010,-0.00001565,0.00005090,-0.000008
 11,0.00009454,-0.00019741,-0.00026240,0.00028200,-0.00042285,0.0003820
 2,-0.00004807,0.00042557,-0.00049303,0.00063769,0.00184626,-0.00005848
 ,-0.00000168,0.00001539,0.00002016,0.00001091,-0.00000884,0.00004109,-
 0.00001073,0.00000298,-0.00461671,-0.01212523,-0.01868652,-0.00033742,
 0.00042837,0.00038410,0.00376776,0.00104202,-0.00090081,-0.00001450,-0
 .00000094,0.00000551,0.00000219,-0.00000126,0.00000092,0.00000099,0.00
 000048,-0.00000136,0.00000127,0.00000103,-0.00000197,0.00014092,-0.000
 05202,0.00006975,0.00001091,-0.00000313,-0.00000493,-0.00001711,-0.000
 01458,-0.00001384,0.00004000,-0.00005389,0.00004671,0.00001950,-0.0000
 0581,0.00000450,0.00000046,0.00000315,0.00001861,0.00000424,0.00000047
 ,-0.00000102,0.00000019,-0.00000069,-0.00000019,0.00000293,-0.00000100
 ,0.00000016,-0.00000201,-0.00000103,0.00000052,-0.00001901,0.00000775,
 0.00000739,-0.00000078,-0.00000464,0.00002273,0.00000167,0.00002463,0.
 00002755,-0.02948239,-0.12272660,-0.23080667,-0.00088199,-0.00827771,-
 0.01172708,0.00142267,0.00586282,0.00921731,0.03028422,0.13510006,0.25
 052752\\-0.00000051,-0.00000150,-0.00000168,-0.00000024,-0.00000048,-0
 .00000120,0.,0.00000045,-0.00000189,-0.00000012,0.00000030,-0.00000300
 ,-0.00000043,-0.00000066,-0.00000353,-0.00000061,-0.00000155,-0.000002
 83,-0.00000067,-0.00000219,-0.00000117,-0.00000050,-0.00000072,-0.0000
 0439,-0.00000086,-0.00000236,-0.00000320,-0.00000013,-0.00000047,0.000
 00007,0.,0.00000006,0.00000057,0.00000004,-0.00000007,0.00000060,0.000
 00039,0.00000101,0.00000107,0.00000032,0.00000089,0.00000113,-0.000000
 18,-0.00000072,0.00000045,-0.00000043,-0.00000165,0.00000008,0.,-0.000
 00030,0.00000070,-0.00000006,-0.00000053,0.00000027,-0.00000038,-0.000
 00141,-0.00000005,0.00000004,0.00000009,0.00000050,-0.00000023,-0.0000
 0094,0.00000053,-0.00000033,-0.00000119,-0.00000031,-0.00000037,-0.000
 00167,0.00000105,-0.00000012,-0.00000053,0.00000026,0.00000005,0.00000
 007,0.00000047,-0.00000027,-0.00000121,0.00000079,-0.00000022,-0.00000
 071,-0.00000059,0.00000043,0.00000139,0.00000136,0.00000069,0.00000210
 ,0.00000173,0.00000049,0.00000143,0.00000165,0.00000052,0.00000169,0.0
 0000099,0.00000039,0.00000090,0.00000221,0.00000071,0.00000213,0.00000
 209,0.00000059,0.00000170,0.00000146,0.00000044,0.00000117,0.00000205,
 0.00000057,0.00000198,0.00000084,0.00000077,0.00000232,0.00000200,-0.0
 0000033,-0.00000132,0.00000033,0.00000036,0.00000171,-0.00000130,0.000
 00012,0.00000147,-0.00000388,-0.00000001,-0.00000029,0.00000088,-0.000
 00015,-0.00000076,0.00000078,0.00000011,-0.00000005,0.00000174,0.00000
 014,0.00000044,0.00000037\\\@
 The archive entry for this job was punched.


 WHEN HAVING A MEETING OF THE MINDS,
 MAKE SURE YOU HAVE THE EQUIPMENT FOR IT.
 Job cpu time:       2 days 12 hours 35 minutes 32.6 seconds.
 Elapsed time:       0 days  3 hours 47 minutes 15.5 seconds.
 File lengths (MBytes):  RWF=   1359 Int=      0 D2E=      0 Chk=     23 Scr=      1
 Normal termination of Gaussian 16 at Wed Mar  4 00:58:19 2026.
