 Entering Gaussian System, Link 0=g16
 Input=FEL_Cl_COO_Conformer_DFT_wB97XD_G631pd_Opt_VeryTight_Freq_Raman_Pol.gjf
 Output=FEL_Cl_COO_Conformer_DFT_wB97XD_G631pd_Opt_VeryTight_Freq_Raman_Pol.log
 Initial command:
 /opt/g16/l1.exe "/home/yarger/scratches/g16/Gau-362136.inp" -scrdir="/home/yarger/scratches/g16/"
 Entering Link 1 = /opt/g16/l1.exe PID=    362138.
  
 Copyright (c) 1988-2019, Gaussian, Inc.  All Rights Reserved.
  
 This is part of the Gaussian(R) 16 program.  It is based on
 the Gaussian(R) 09 system (copyright 2009, Gaussian, Inc.),
 the Gaussian(R) 03 system (copyright 2003, Gaussian, Inc.),
 the Gaussian(R) 98 system (copyright 1998, Gaussian, Inc.),
 the Gaussian(R) 94 system (copyright 1995, Gaussian, Inc.),
 the Gaussian 92(TM) system (copyright 1992, Gaussian, Inc.),
 the Gaussian 90(TM) system (copyright 1990, Gaussian, Inc.),
 the Gaussian 88(TM) system (copyright 1988, Gaussian, Inc.),
 the Gaussian 86(TM) system (copyright 1986, Carnegie Mellon
 University), and the Gaussian 82(TM) system (copyright 1983,
 Carnegie Mellon University). Gaussian is a federally registered
 trademark of Gaussian, Inc.
  
 This software contains proprietary and confidential information,
 including trade secrets, belonging to Gaussian, Inc.
  
 This software is provided under written license and may be
 used, copied, transmitted, or stored only in accord with that
 written license.
  
 The following legend is applicable only to US Government
 contracts under FAR:
  
                    RESTRICTED RIGHTS LEGEND
  
 Use, reproduction and disclosure by the US Government is
 subject to restrictions as set forth in subparagraphs (a)
 and (c) of the Commercial Computer Software - Restricted
 Rights clause in FAR 52.227-19.
  
 Gaussian, Inc.
 340 Quinnipiac St., Bldg. 40, Wallingford CT 06492
  
  
 ---------------------------------------------------------------
 Warning -- This program may not be used in any manner that
 competes with the business of Gaussian, Inc. or will provide
 assistance to any competitor of Gaussian, Inc.  The licensee
 of this program is prohibited from giving any competitor of
 Gaussian, Inc. access to this program.  By using this program,
 the user acknowledges that Gaussian, Inc. is engaged in the
 business of creating and licensing software in the field of
 computational chemistry and represents and warrants to the
 licensee that it is not a competitor of Gaussian, Inc. and that
 it will not use this program in any manner prohibited above.
 ---------------------------------------------------------------
  

 Cite this work as:
 Gaussian 16, Revision C.01,
 M. J. Frisch, G. W. Trucks, H. B. Schlegel, G. E. Scuseria, 
 M. A. Robb, J. R. Cheeseman, G. Scalmani, V. Barone, 
 G. A. Petersson, H. Nakatsuji, X. Li, M. Caricato, A. V. Marenich, 
 J. Bloino, B. G. Janesko, R. Gomperts, B. Mennucci, H. P. Hratchian, 
 J. V. Ortiz, A. F. Izmaylov, J. L. Sonnenberg, D. Williams-Young, 
 F. Ding, F. Lipparini, F. Egidi, J. Goings, B. Peng, A. Petrone, 
 T. Henderson, D. Ranasinghe, V. G. Zakrzewski, J. Gao, N. Rega, 
 G. Zheng, W. Liang, M. Hada, M. Ehara, K. Toyota, R. Fukuda, 
 J. Hasegawa, M. Ishida, T. Nakajima, Y. Honda, O. Kitao, H. Nakai, 
 T. Vreven, K. Throssell, J. A. Montgomery, Jr., J. E. Peralta, 
 F. Ogliaro, M. J. Bearpark, J. J. Heyd, E. N. Brothers, K. N. Kudin, 
 V. N. Staroverov, T. A. Keith, R. Kobayashi, J. Normand, 
 K. Raghavachari, A. P. Rendell, J. C. Burant, S. S. Iyengar, 
 J. Tomasi, M. Cossi, J. M. Millam, M. Klene, C. Adamo, R. Cammi, 
 J. W. Ochterski, R. L. Martin, K. Morokuma, O. Farkas, 
 J. B. Foresman, and D. J. Fox, Gaussian, Inc., Wallingford CT, 2019.
 
 ******************************************
 Gaussian 16:  ES64L-G16RevC.01  3-Jul-2019
                 3-Mar-2026 
 ******************************************
 %nprocshared=16
 Will use up to   16 processors via shared memory.
 %mem=16GB
 %chk=FEL_Cl_COO_Conformer_DFT_wB97XD_G631pd_Opt_VeryTight_Freq_Raman_Pol.chk
 ----------------------------------------------------------------------
 #p opt=verytight freq=raman wb97xd/6-31+g(d) geom=connectivity polar i
 nt=ultrafine scf=verytight
 ----------------------------------------------------------------------
 1/7=1,18=20,19=15,26=4,38=1,57=2/1,3;
 2/9=110,12=2,17=6,18=5,40=1/2;
 3/5=1,6=6,7=11,11=2,25=1,30=1,71=1,74=-58,75=-5/1,2,3;
 4//1;
 5/5=2,17=3,38=5,98=1/2;
 6/7=2,8=2,9=2,10=2,28=1/1;
 7//1,2,3,16;
 1/7=1,18=20,19=15,26=4/3(2);
 2/9=110/2;
 99//99;
 2/9=110/2;
 3/5=1,6=6,7=11,11=2,25=1,30=1,71=1,74=-58,75=-5/1,2,3;
 4/5=5,16=3,69=1/1;
 5/5=2,17=3,38=5,98=1/2;
 7//1,2,3,16;
 1/7=1,18=20,19=15,26=4/3(-5);
 2/9=110/2;
 6/7=2,8=2,9=2,10=2,19=2,28=1/1;
 99/9=1/99;
 Leave Link    1 at Tue Mar  3 15:01:16 2026, MaxMem=  2147483648 cpu:               0.8 elap:               0.1
 (Enter /opt/g16/l101.exe)
 ----------
 Felodipine
 ----------
 Symbolic Z-matrix:
 Charge =  0 Multiplicity = 1
 C                    -0.61468   1.77608  -0.76128 
 C                     0.44864   0.85718  -0.77399 
 C                     1.7469    1.38534  -0.80833 
 C                     1.96304   2.76491  -0.82878 
 C                     0.89807   3.65605  -0.81577 
 C                    -0.40121   3.15015  -0.78166 
 H                    -1.61925   1.3852   -0.73451 
 H                     1.08869   4.7182   -0.83206 
 H                    -1.24138   3.83009  -0.7711 
 C                     0.08367  -0.64795  -0.74884 
 C                    -0.617    -1.07678   0.54051 
 C                    -0.67154  -1.1057   -1.99712 
 C                    -1.92069  -1.47561   0.53747 
 C                    -1.97338  -1.50363  -1.92842 
 C                     0.14538  -1.12425  -3.20698 
 O                     1.36886  -0.8975   -3.21497 
 O                    -0.52711  -1.42849  -4.38127 
 C                     0.24871  -1.06768   1.71438 
 O                     1.46994  -0.83644   1.67402 
 O                    -0.378    -1.35347   2.91958 
 C                     0.28711  -1.44738  -5.61797 
 H                     0.76745  -0.47556  -5.72524 
 H                     1.06791  -2.19852  -5.50272 
 C                     0.48206  -1.34658   4.11024 
 H                    -0.18449  -1.5805    4.93295 
 H                     1.26531  -2.0953    4.01456 
 H                     0.93589  -0.36665   4.24011 
 N                    -2.57687  -1.60428  -0.68035 
 H                    -3.5566   -1.82758  -0.65685 
 C                    -2.87419  -1.89548  -3.07189 
 H                    -2.93682  -1.09972  -3.80955 
 H                    -2.49087  -2.77031  -3.59365 
 H                    -3.87948  -2.12008  -2.71084 
 C                    -2.77062  -1.84118   1.72788 
 H                    -2.36622  -2.70662   2.24965 
 H                    -2.79818  -1.03068   2.45155 
 H                    -3.79153  -2.06976   1.4166 
 H                     1.05526  -1.14126  -0.76441 
 Cl                    3.20569   0.28549  -0.82783 
 Cl                    3.64655   3.46912  -0.87348 
 C                    -0.65476  -1.75926  -6.76337 
 H                    -0.09995  -1.78202  -7.70364 
 H                    -1.13126  -2.73019  -6.62595 
 H                    -1.43344  -1.00089  -6.84578 
 
 ITRead=  0  0  0  0  0  0  0  0  0  0  0  0  0  0  0  0  0  0  0  0
 ITRead=  0  0  0  0  0  0  0  0  0  0  0  0  0  0  0  0  0  0  0  0
 ITRead=  0  0  0  0
 MicOpt= -1 -1 -1 -1 -1 -1 -1 -1 -1 -1 -1 -1 -1 -1 -1 -1 -1 -1 -1 -1
 MicOpt= -1 -1 -1 -1 -1 -1 -1 -1 -1 -1 -1 -1 -1 -1 -1 -1 -1 -1 -1 -1
 MicOpt= -1 -1 -1 -1
 NAtoms=     44 NQM=       44 NQMF=       0 NMMI=      0 NMMIF=      0
                NMic=       0 NMicF=      0.
                    Isotopes and Nuclear Properties:
 (Nuclear quadrupole moments (NQMom) in fm**2, nuclear magnetic moments (NMagM)
  in nuclear magnetons)

  Atom         1           2           3           4           5           6           7           8           9          10
 IAtWgt=          12          12          12          12          12          12           1           1           1          12
 AtmWgt=  12.0000000  12.0000000  12.0000000  12.0000000  12.0000000  12.0000000   1.0078250   1.0078250   1.0078250  12.0000000
 NucSpn=           0           0           0           0           0           0           1           1           1           0
 AtZEff=  -0.0000000  -0.0000000  -0.0000000  -0.0000000  -0.0000000  -0.0000000  -0.0000000  -0.0000000  -0.0000000  -0.0000000
 NQMom=    0.0000000   0.0000000   0.0000000   0.0000000   0.0000000   0.0000000   0.0000000   0.0000000   0.0000000   0.0000000
 NMagM=    0.0000000   0.0000000   0.0000000   0.0000000   0.0000000   0.0000000   2.7928460   2.7928460   2.7928460   0.0000000
 AtZNuc=   6.0000000   6.0000000   6.0000000   6.0000000   6.0000000   6.0000000   1.0000000   1.0000000   1.0000000   6.0000000

  Atom        11          12          13          14          15          16          17          18          19          20
 IAtWgt=          12          12          12          12          12          16          16          12          16          16
 AtmWgt=  12.0000000  12.0000000  12.0000000  12.0000000  12.0000000  15.9949146  15.9949146  12.0000000  15.9949146  15.9949146
 NucSpn=           0           0           0           0           0           0           0           0           0           0
 AtZEff=  -0.0000000  -0.0000000  -0.0000000  -0.0000000  -0.0000000  -0.0000000  -0.0000000  -0.0000000  -0.0000000  -0.0000000
 NQMom=    0.0000000   0.0000000   0.0000000   0.0000000   0.0000000   0.0000000   0.0000000   0.0000000   0.0000000   0.0000000
 NMagM=    0.0000000   0.0000000   0.0000000   0.0000000   0.0000000   0.0000000   0.0000000   0.0000000   0.0000000   0.0000000
 AtZNuc=   6.0000000   6.0000000   6.0000000   6.0000000   6.0000000   8.0000000   8.0000000   6.0000000   8.0000000   8.0000000

  Atom        21          22          23          24          25          26          27          28          29          30
 IAtWgt=          12           1           1          12           1           1           1          14           1          12
 AtmWgt=  12.0000000   1.0078250   1.0078250  12.0000000   1.0078250   1.0078250   1.0078250  14.0030740   1.0078250  12.0000000
 NucSpn=           0           1           1           0           1           1           1           2           1           0
 AtZEff=  -0.0000000  -0.0000000  -0.0000000  -0.0000000  -0.0000000  -0.0000000  -0.0000000  -0.0000000  -0.0000000  -0.0000000
 NQMom=    0.0000000   0.0000000   0.0000000   0.0000000   0.0000000   0.0000000   0.0000000   2.0440000   0.0000000   0.0000000
 NMagM=    0.0000000   2.7928460   2.7928460   0.0000000   2.7928460   2.7928460   2.7928460   0.4037610   2.7928460   0.0000000
 AtZNuc=   6.0000000   1.0000000   1.0000000   6.0000000   1.0000000   1.0000000   1.0000000   7.0000000   1.0000000   6.0000000

  Atom        31          32          33          34          35          36          37          38          39          40
 IAtWgt=           1           1           1          12           1           1           1           1          35          35
 AtmWgt=   1.0078250   1.0078250   1.0078250  12.0000000   1.0078250   1.0078250   1.0078250   1.0078250  34.9688527  34.9688527
 NucSpn=           1           1           1           0           1           1           1           1           3           3
 AtZEff=  -0.0000000  -0.0000000  -0.0000000  -0.0000000  -0.0000000  -0.0000000  -0.0000000  -0.0000000  -0.0000000  -0.0000000
 NQMom=    0.0000000   0.0000000   0.0000000   0.0000000   0.0000000   0.0000000   0.0000000   0.0000000  -8.1650000  -8.1650000
 NMagM=    2.7928460   2.7928460   2.7928460   0.0000000   2.7928460   2.7928460   2.7928460   2.7928460   0.8218740   0.8218740
 AtZNuc=   1.0000000   1.0000000   1.0000000   6.0000000   1.0000000   1.0000000   1.0000000   1.0000000  17.0000000  17.0000000

  Atom        41          42          43          44
 IAtWgt=          12           1           1           1
 AtmWgt=  12.0000000   1.0078250   1.0078250   1.0078250
 NucSpn=           0           1           1           1
 AtZEff=  -0.0000000  -0.0000000  -0.0000000  -0.0000000
 NQMom=    0.0000000   0.0000000   0.0000000   0.0000000
 NMagM=    0.0000000   2.7928460   2.7928460   2.7928460
 AtZNuc=   6.0000000   1.0000000   1.0000000   1.0000000
 Leave Link  101 at Tue Mar  3 15:01:17 2026, MaxMem=  2147483648 cpu:              22.4 elap:               1.4
 (Enter /opt/g16/l103.exe)

 GradGradGradGradGradGradGradGradGradGradGradGradGradGradGradGradGradGrad
 Berny optimization.
 Initialization pass.
                           ----------------------------
                           !    Initial Parameters    !
                           ! (Angstroms and Degrees)  !
 --------------------------                            --------------------------
 ! Name  Definition              Value          Derivative Info.                !
 --------------------------------------------------------------------------------
 ! R1    R(1,2)                  1.4054         estimate D2E/DX2                !
 ! R2    R(1,6)                  1.3907         estimate D2E/DX2                !
 ! R3    R(1,7)                  1.0783         estimate D2E/DX2                !
 ! R4    R(2,3)                  1.402          estimate D2E/DX2                !
 ! R5    R(2,10)                 1.549          estimate D2E/DX2                !
 ! R6    R(3,4)                  1.3966         estimate D2E/DX2                !
 ! R7    R(3,39)                 1.8271         estimate D2E/DX2                !
 ! R8    R(4,5)                  1.3887         estimate D2E/DX2                !
 ! R9    R(4,40)                 1.8254         estimate D2E/DX2                !
 ! R10   R(5,6)                  1.3947         estimate D2E/DX2                !
 ! R11   R(5,8)                  1.0792         estimate D2E/DX2                !
 ! R12   R(6,9)                  1.0809         estimate D2E/DX2                !
 ! R13   R(10,11)                1.5288         estimate D2E/DX2                !
 ! R14   R(10,12)                1.5291         estimate D2E/DX2                !
 ! R15   R(10,38)                1.0898         estimate D2E/DX2                !
 ! R16   R(11,13)                1.3633         estimate D2E/DX2                !
 ! R17   R(11,18)                1.4586         estimate D2E/DX2                !
 ! R18   R(12,14)                1.363          estimate D2E/DX2                !
 ! R19   R(12,15)                1.46           estimate D2E/DX2                !
 ! R20   R(13,28)                1.3893         estimate D2E/DX2                !
 ! R21   R(13,34)                1.5077         estimate D2E/DX2                !
 ! R22   R(14,28)                1.39           estimate D2E/DX2                !
 ! R23   R(14,30)                1.5075         estimate D2E/DX2                !
 ! R24   R(15,16)                1.2443         estimate D2E/DX2                !
 ! R25   R(15,17)                1.387          estimate D2E/DX2                !
 ! R26   R(17,21)                1.4808         estimate D2E/DX2                !
 ! R27   R(18,19)                1.2436         estimate D2E/DX2                !
 ! R28   R(18,20)                1.3881         estimate D2E/DX2                !
 ! R29   R(20,24)                1.4688         estimate D2E/DX2                !
 ! R30   R(21,22)                1.0893         estimate D2E/DX2                !
 ! R31   R(21,23)                1.0896         estimate D2E/DX2                !
 ! R32   R(21,41)                1.5154         estimate D2E/DX2                !
 ! R33   R(24,25)                1.0844         estimate D2E/DX2                !
 ! R34   R(24,26)                1.0878         estimate D2E/DX2                !
 ! R35   R(24,27)                1.0877         estimate D2E/DX2                !
 ! R36   R(28,29)                1.0051         estimate D2E/DX2                !
 ! R37   R(30,31)                1.0869         estimate D2E/DX2                !
 ! R38   R(30,32)                1.0883         estimate D2E/DX2                !
 ! R39   R(30,33)                1.0915         estimate D2E/DX2                !
 ! R40   R(34,35)                1.0885         estimate D2E/DX2                !
 ! R41   R(34,36)                1.0869         estimate D2E/DX2                !
 ! R42   R(34,37)                1.0915         estimate D2E/DX2                !
 ! R43   R(41,42)                1.092          estimate D2E/DX2                !
 ! R44   R(41,43)                1.0902         estimate D2E/DX2                !
 ! R45   R(41,44)                1.0901         estimate D2E/DX2                !
 ! A1    A(2,1,6)              121.9881         estimate D2E/DX2                !
 ! A2    A(2,1,7)              117.9095         estimate D2E/DX2                !
 ! A3    A(6,1,7)              120.1023         estimate D2E/DX2                !
 ! A4    A(1,2,3)              117.0337         estimate D2E/DX2                !
 ! A5    A(1,2,10)             117.1881         estimate D2E/DX2                !
 ! A6    A(3,2,10)             125.7782         estimate D2E/DX2                !
 ! A7    A(2,3,4)              121.0515         estimate D2E/DX2                !
 ! A8    A(2,3,39)             120.8534         estimate D2E/DX2                !
 ! A9    A(4,3,39)             118.0951         estimate D2E/DX2                !
 ! A10   A(3,4,5)              121.0034         estimate D2E/DX2                !
 ! A11   A(3,4,40)             121.6133         estimate D2E/DX2                !
 ! A12   A(5,4,40)             117.3833         estimate D2E/DX2                !
 ! A13   A(4,5,6)              118.8079         estimate D2E/DX2                !
 ! A14   A(4,5,8)              119.7329         estimate D2E/DX2                !
 ! A15   A(6,5,8)              121.4592         estimate D2E/DX2                !
 ! A16   A(1,6,5)              120.1154         estimate D2E/DX2                !
 ! A17   A(1,6,9)              120.1376         estimate D2E/DX2                !
 ! A18   A(5,6,9)              119.7471         estimate D2E/DX2                !
 ! A19   A(2,10,11)            113.219          estimate D2E/DX2                !
 ! A20   A(2,10,12)            113.2047         estimate D2E/DX2                !
 ! A21   A(2,10,38)            103.2714         estimate D2E/DX2                !
 ! A22   A(11,10,12)           112.22           estimate D2E/DX2                !
 ! A23   A(11,10,38)           107.0785         estimate D2E/DX2                !
 ! A24   A(12,10,38)           107.0474         estimate D2E/DX2                !
 ! A25   A(10,11,13)           121.2274         estimate D2E/DX2                !
 ! A26   A(10,11,18)           113.8895         estimate D2E/DX2                !
 ! A27   A(13,11,18)           124.8321         estimate D2E/DX2                !
 ! A28   A(10,12,14)           121.1968         estimate D2E/DX2                !
 ! A29   A(10,12,15)           113.8258         estimate D2E/DX2                !
 ! A30   A(14,12,15)           124.924          estimate D2E/DX2                !
 ! A31   A(11,13,28)           118.7301         estimate D2E/DX2                !
 ! A32   A(11,13,34)           127.4627         estimate D2E/DX2                !
 ! A33   A(28,13,34)           113.7903         estimate D2E/DX2                !
 ! A34   A(12,14,28)           118.7562         estimate D2E/DX2                !
 ! A35   A(12,14,30)           127.4729         estimate D2E/DX2                !
 ! A36   A(28,14,30)           113.7544         estimate D2E/DX2                !
 ! A37   A(12,15,16)           123.5849         estimate D2E/DX2                !
 ! A38   A(12,15,17)           115.6644         estimate D2E/DX2                !
 ! A39   A(16,15,17)           120.748          estimate D2E/DX2                !
 ! A40   A(15,17,21)           116.3138         estimate D2E/DX2                !
 ! A41   A(11,18,19)           123.9106         estimate D2E/DX2                !
 ! A42   A(11,18,20)           115.4348         estimate D2E/DX2                !
 ! A43   A(19,18,20)           120.6514         estimate D2E/DX2                !
 ! A44   A(18,20,24)           116.0061         estimate D2E/DX2                !
 ! A45   A(17,21,22)           108.2591         estimate D2E/DX2                !
 ! A46   A(17,21,23)           108.3298         estimate D2E/DX2                !
 ! A47   A(17,21,41)           106.9855         estimate D2E/DX2                !
 ! A48   A(22,21,23)           108.0263         estimate D2E/DX2                !
 ! A49   A(22,21,41)           112.5349         estimate D2E/DX2                !
 ! A50   A(23,21,41)           112.5492         estimate D2E/DX2                !
 ! A51   A(20,24,25)           104.7194         estimate D2E/DX2                !
 ! A52   A(20,24,26)           110.3096         estimate D2E/DX2                !
 ! A53   A(20,24,27)           110.202          estimate D2E/DX2                !
 ! A54   A(25,24,26)           111.153          estimate D2E/DX2                !
 ! A55   A(25,24,27)           111.1142         estimate D2E/DX2                !
 ! A56   A(26,24,27)           109.2799         estimate D2E/DX2                !
 ! A57   A(13,28,14)           125.1208         estimate D2E/DX2                !
 ! A58   A(13,28,29)           117.4156         estimate D2E/DX2                !
 ! A59   A(14,28,29)           117.406          estimate D2E/DX2                !
 ! A60   A(14,30,31)           111.0343         estimate D2E/DX2                !
 ! A61   A(14,30,32)           111.2302         estimate D2E/DX2                !
 ! A62   A(14,30,33)           110.6669         estimate D2E/DX2                !
 ! A63   A(31,30,32)           106.4663         estimate D2E/DX2                !
 ! A64   A(31,30,33)           108.7885         estimate D2E/DX2                !
 ! A65   A(32,30,33)           108.5156         estimate D2E/DX2                !
 ! A66   A(13,34,35)           111.2133         estimate D2E/DX2                !
 ! A67   A(13,34,36)           111.0497         estimate D2E/DX2                !
 ! A68   A(13,34,37)           110.6637         estimate D2E/DX2                !
 ! A69   A(35,34,36)           106.4484         estimate D2E/DX2                !
 ! A70   A(35,34,37)           108.524          estimate D2E/DX2                !
 ! A71   A(36,34,37)           108.8027         estimate D2E/DX2                !
 ! A72   A(21,41,42)           109.8363         estimate D2E/DX2                !
 ! A73   A(21,41,43)           111.0795         estimate D2E/DX2                !
 ! A74   A(21,41,44)           110.9745         estimate D2E/DX2                !
 ! A75   A(42,41,43)           108.182          estimate D2E/DX2                !
 ! A76   A(42,41,44)           108.2001         estimate D2E/DX2                !
 ! A77   A(43,41,44)           108.4751         estimate D2E/DX2                !
 ! D1    D(6,1,2,3)              0.0028         estimate D2E/DX2                !
 ! D2    D(6,1,2,10)          -179.9982         estimate D2E/DX2                !
 ! D3    D(7,1,2,3)           -179.9757         estimate D2E/DX2                !
 ! D4    D(7,1,2,10)             0.0232         estimate D2E/DX2                !
 ! D5    D(2,1,6,5)             -0.0028         estimate D2E/DX2                !
 ! D6    D(2,1,6,9)            179.9995         estimate D2E/DX2                !
 ! D7    D(7,1,6,5)            179.9753         estimate D2E/DX2                !
 ! D8    D(7,1,6,9)             -0.0224         estimate D2E/DX2                !
 ! D9    D(1,2,3,4)             -0.0004         estimate D2E/DX2                !
 ! D10   D(1,2,3,39)          -179.9915         estimate D2E/DX2                !
 ! D11   D(10,2,3,4)          -179.9992         estimate D2E/DX2                !
 ! D12   D(10,2,3,39)            0.0097         estimate D2E/DX2                !
 ! D13   D(1,2,10,11)          -64.5631         estimate D2E/DX2                !
 ! D14   D(1,2,10,12)           64.6065         estimate D2E/DX2                !
 ! D15   D(1,2,10,38)          180.0            estimate D2E/DX2                !
 ! D16   D(3,2,10,11)          115.4357         estimate D2E/DX2                !
 ! D17   D(3,2,10,12)         -115.3947         estimate D2E/DX2                !
 ! D18   D(3,2,10,38)           -0.0012         estimate D2E/DX2                !
 ! D19   D(2,3,4,5)             -0.0021         estimate D2E/DX2                !
 ! D20   D(2,3,4,40)           179.9982         estimate D2E/DX2                !
 ! D21   D(39,3,4,5)           179.9893         estimate D2E/DX2                !
 ! D22   D(39,3,4,40)           -0.0104         estimate D2E/DX2                !
 ! D23   D(3,4,5,6)              0.0022         estimate D2E/DX2                !
 ! D24   D(3,4,5,8)           -179.9989         estimate D2E/DX2                !
 ! D25   D(40,4,5,6)          -179.9981         estimate D2E/DX2                !
 ! D26   D(40,4,5,8)             0.0008         estimate D2E/DX2                !
 ! D27   D(4,5,6,1)              0.0002         estimate D2E/DX2                !
 ! D28   D(4,5,6,9)            179.998          estimate D2E/DX2                !
 ! D29   D(8,5,6,1)           -179.9987         estimate D2E/DX2                !
 ! D30   D(8,5,6,9)             -0.001          estimate D2E/DX2                !
 ! D31   D(2,10,11,13)         112.8488         estimate D2E/DX2                !
 ! D32   D(2,10,11,18)         -69.6283         estimate D2E/DX2                !
 ! D33   D(12,10,11,13)        -16.8222         estimate D2E/DX2                !
 ! D34   D(12,10,11,18)        160.7006         estimate D2E/DX2                !
 ! D35   D(38,10,11,13)       -134.0025         estimate D2E/DX2                !
 ! D36   D(38,10,11,18)         43.5203         estimate D2E/DX2                !
 ! D37   D(2,10,12,14)        -112.8629         estimate D2E/DX2                !
 ! D38   D(2,10,12,15)          69.6692         estimate D2E/DX2                !
 ! D39   D(11,10,12,14)         16.8156         estimate D2E/DX2                !
 ! D40   D(11,10,12,15)       -160.6524         estimate D2E/DX2                !
 ! D41   D(38,10,12,14)        134.0144         estimate D2E/DX2                !
 ! D42   D(38,10,12,15)        -43.4535         estimate D2E/DX2                !
 ! D43   D(10,11,13,28)          5.784          estimate D2E/DX2                !
 ! D44   D(10,11,13,34)       -175.8127         estimate D2E/DX2                !
 ! D45   D(18,11,13,28)       -171.4565         estimate D2E/DX2                !
 ! D46   D(18,11,13,34)          6.9469         estimate D2E/DX2                !
 ! D47   D(10,11,18,19)         -5.331          estimate D2E/DX2                !
 ! D48   D(10,11,18,20)        175.3206         estimate D2E/DX2                !
 ! D49   D(13,11,18,19)        172.0883         estimate D2E/DX2                !
 ! D50   D(13,11,18,20)         -7.2601         estimate D2E/DX2                !
 ! D51   D(10,12,14,28)         -5.7783         estimate D2E/DX2                !
 ! D52   D(10,12,14,30)        175.7935         estimate D2E/DX2                !
 ! D53   D(15,12,14,28)        171.3964         estimate D2E/DX2                !
 ! D54   D(15,12,14,30)         -7.0318         estimate D2E/DX2                !
 ! D55   D(10,12,15,16)          5.6319         estimate D2E/DX2                !
 ! D56   D(10,12,15,17)       -174.9615         estimate D2E/DX2                !
 ! D57   D(14,12,15,16)       -171.7264         estimate D2E/DX2                !
 ! D58   D(14,12,15,17)          7.6802         estimate D2E/DX2                !
 ! D59   D(11,13,28,14)          7.6238         estimate D2E/DX2                !
 ! D60   D(11,13,28,29)       -175.2159         estimate D2E/DX2                !
 ! D61   D(34,13,28,14)       -170.9912         estimate D2E/DX2                !
 ! D62   D(34,13,28,29)          6.1691         estimate D2E/DX2                !
 ! D63   D(11,13,34,35)        -62.3112         estimate D2E/DX2                !
 ! D64   D(11,13,34,36)         56.037          estimate D2E/DX2                !
 ! D65   D(11,13,34,37)        176.9843         estimate D2E/DX2                !
 ! D66   D(28,13,34,35)        116.1587         estimate D2E/DX2                !
 ! D67   D(28,13,34,36)       -125.4931         estimate D2E/DX2                !
 ! D68   D(28,13,34,37)         -4.5458         estimate D2E/DX2                !
 ! D69   D(12,14,28,13)         -7.6264         estimate D2E/DX2                !
 ! D70   D(12,14,28,29)        175.213          estimate D2E/DX2                !
 ! D71   D(30,14,28,13)        171.0107         estimate D2E/DX2                !
 ! D72   D(30,14,28,29)         -6.1499         estimate D2E/DX2                !
 ! D73   D(12,14,30,31)        -56.2743         estimate D2E/DX2                !
 ! D74   D(12,14,30,32)         62.0973         estimate D2E/DX2                !
 ! D75   D(12,14,30,33)       -177.1954         estimate D2E/DX2                !
 ! D76   D(28,14,30,31)        125.2312         estimate D2E/DX2                !
 ! D77   D(28,14,30,32)       -116.3972         estimate D2E/DX2                !
 ! D78   D(28,14,30,33)          4.3101         estimate D2E/DX2                !
 ! D79   D(12,15,17,21)        179.8265         estimate D2E/DX2                !
 ! D80   D(16,15,17,21)         -0.7487         estimate D2E/DX2                !
 ! D81   D(15,17,21,22)        -56.8899         estimate D2E/DX2                !
 ! D82   D(15,17,21,23)         60.0195         estimate D2E/DX2                !
 ! D83   D(15,17,21,41)       -178.4068         estimate D2E/DX2                !
 ! D84   D(11,18,20,24)       -179.9505         estimate D2E/DX2                !
 ! D85   D(19,18,20,24)          0.678          estimate D2E/DX2                !
 ! D86   D(18,20,24,25)        179.5829         estimate D2E/DX2                !
 ! D87   D(18,20,24,26)        -60.743          estimate D2E/DX2                !
 ! D88   D(18,20,24,27)         60.0098         estimate D2E/DX2                !
 ! D89   D(17,21,41,42)        179.8497         estimate D2E/DX2                !
 ! D90   D(17,21,41,43)        -60.5098         estimate D2E/DX2                !
 ! D91   D(17,21,41,44)         60.2531         estimate D2E/DX2                !
 ! D92   D(22,21,41,42)         61.071          estimate D2E/DX2                !
 ! D93   D(22,21,41,43)       -179.2885         estimate D2E/DX2                !
 ! D94   D(22,21,41,44)        -58.5256         estimate D2E/DX2                !
 ! D95   D(23,21,41,42)        -61.2766         estimate D2E/DX2                !
 ! D96   D(23,21,41,43)         58.364          estimate D2E/DX2                !
 ! D97   D(23,21,41,44)        179.1268         estimate D2E/DX2                !
 --------------------------------------------------------------------------------
 Trust Radius=3.00D-01 FncErr=1.00D-07 GrdErr=1.00D-06 EigMax=2.50D+02 EigMin=1.00D-04
 Number of steps in this run=    229 maximum allowed number of steps=    264.
 GradGradGradGradGradGradGradGradGradGradGradGradGradGradGradGradGradGrad

 Leave Link  103 at Tue Mar  3 15:01:18 2026, MaxMem=  2147483648 cpu:               0.4 elap:               0.0
 (Enter /opt/g16/l202.exe)
                          Input orientation:                          
 ---------------------------------------------------------------------
 Center     Atomic      Atomic             Coordinates (Angstroms)
 Number     Number       Type             X           Y           Z
 ---------------------------------------------------------------------
      1          6           0       -0.614680    1.776084   -0.761280
      2          6           0        0.448643    0.857176   -0.773992
      3          6           0        1.746901    1.385335   -0.808328
      4          6           0        1.963036    2.764910   -0.828781
      5          6           0        0.898071    3.656049   -0.815769
      6          6           0       -0.401210    3.150148   -0.781662
      7          1           0       -1.619245    1.385201   -0.734511
      8          1           0        1.088692    4.718199   -0.832061
      9          1           0       -1.241377    3.830086   -0.771099
     10          6           0        0.083669   -0.647952   -0.748844
     11          6           0       -0.616997   -1.076783    0.540510
     12          6           0       -0.671544   -1.105704   -1.997122
     13          6           0       -1.920693   -1.475607    0.537474
     14          6           0       -1.973377   -1.503631   -1.928424
     15          6           0        0.145377   -1.124254   -3.206985
     16          8           0        1.368862   -0.897504   -3.214967
     17          8           0       -0.527106   -1.428486   -4.381267
     18          6           0        0.248710   -1.067681    1.714377
     19          8           0        1.469939   -0.836439    1.674025
     20          8           0       -0.378001   -1.353470    2.919576
     21          6           0        0.287112   -1.447378   -5.617969
     22          1           0        0.767451   -0.475560   -5.725239
     23          1           0        1.067906   -2.198519   -5.502716
     24          6           0        0.482059   -1.346577    4.110239
     25          1           0       -0.184486   -1.580498    4.932954
     26          1           0        1.265306   -2.095299    4.014558
     27          1           0        0.935890   -0.366655    4.240111
     28          7           0       -2.576873   -1.604285   -0.680354
     29          1           0       -3.556600   -1.827582   -0.656849
     30          6           0       -2.874190   -1.895481   -3.071894
     31          1           0       -2.936825   -1.099716   -3.809546
     32          1           0       -2.490868   -2.770306   -3.593649
     33          1           0       -3.879481   -2.120079   -2.710843
     34          6           0       -2.770616   -1.841182    1.727875
     35          1           0       -2.366219   -2.706615    2.249653
     36          1           0       -2.798177   -1.030676    2.451549
     37          1           0       -3.791527   -2.069756    1.416602
     38          1           0        1.055259   -1.141264   -0.764413
     39         17           0        3.205692    0.285485   -0.827833
     40         17           0        3.646551    3.469123   -0.873478
     41          6           0       -0.654763   -1.759260   -6.763372
     42          1           0       -0.099949   -1.782017   -7.703642
     43          1           0       -1.131261   -2.730186   -6.625946
     44          1           0       -1.433438   -1.000892   -6.845784
 ---------------------------------------------------------------------
                    Distance matrix (angstroms):
                    1          2          3          4          5
     1  C    0.000000
     2  C    1.405421   0.000000
     3  C    2.394151   1.402000   0.000000
     4  C    2.761694   2.436357   1.396553   0.000000
     5  C    2.413639   2.835034   2.424192   1.388686   0.000000
     6  C    1.390697   2.445410   2.780226   2.395889   1.394715
     7  H    1.078266   2.134603   3.366955   3.839951   3.391199
     8  H    3.400372   3.914145   3.397319   2.140052   1.079242
     9  H    2.147504   3.419703   3.861087   3.377304   2.146979
    10  C    2.522656   1.548951   2.627572   3.896927   4.380885
    11  C    3.135843   2.569767   3.670069   4.825986   5.151177
    12  C    3.136119   2.569779   3.669794   4.825732   5.151076
    13  C    3.737101   3.574293   4.842253   5.910329   6.009208
    14  C    3.736952   3.573836   4.841612   5.909738   6.008786
    15  C    3.869253   3.152379   3.823150   4.907682   5.397755
    16  O    4.135588   3.143893   3.338589   4.411372   5.168427
    17  O    4.835416   4.380499   5.084741   6.033700   6.371531
    18  C    3.867987   3.152306   3.824383   4.908699   5.397864
    19  O    4.135411   3.147088   3.342912   4.413264   5.168032
    20  O    4.837233   4.383234   5.090533   6.040835   6.377808
    21  C    5.898420   5.366672   5.769566   6.594574   7.034156
    22  H    5.623262   5.137380   5.347735   5.992109   6.417955
    23  H    6.411691   5.664062   5.944942   6.876232   7.501486
    24  C    5.889444   5.358485   5.766756   6.594812   7.033128
    25  H    6.623897   6.237976   6.744534   7.529410   7.851189
    26  H    6.428887   5.684564   5.967158   6.896840   7.519636
    27  H    5.657695   5.184246   5.404993   6.046106   6.461076
    28  N    3.909430   3.901449   5.258253   6.302592   6.305924
    29  H    4.653193   4.823238   6.202653   7.182404   7.066793
    30  C    4.891289   4.888629   6.102620   7.081635   7.080928
    31  H    4.791086   4.950294   6.092625   6.915847   6.803413
    32  H    5.675567   5.454339   6.556375   7.623672   7.778147
    33  H    5.444245   5.598937   6.896641   7.844761   7.731750
    34  C    4.891683   4.889182   6.103335   7.082375   7.081591
    35  H    5.676988   5.455867   6.558434   7.626060   7.780481
    36  H    4.792476   4.950751   6.092753   6.916371   6.804631
    37  H    5.442978   5.598631   6.896531   7.844153   7.730501
    38  H    3.361491   2.088501   2.619924   4.010785   4.800162
    39  Cl   4.101409   2.816212   1.827053   2.773400   4.084845
    40  Cl   4.586618   4.130228   2.820477   1.825415   2.755434
    41  C    6.966016   6.628418   7.149757   7.908247   8.192121
    42  H    7.818018   7.435478   7.809502   8.496715   8.832406
    43  H    7.414015   7.043481   7.685441   8.566089   8.869066
    44  H    6.738186   6.622787   7.229074   7.869030   7.967692
                    6          7          8          9         10
     6  C    0.000000
     7  H    2.144964   0.000000
     8  H    2.163592   4.295499   0.000000
     9  H    1.080883   2.474184   2.494330   0.000000
    10  C    3.829066   2.652137   5.460089   4.670018   0.000000
    11  C    4.434146   2.948143   6.194768   5.117376   1.528811
    12  C    4.434265   2.949057   6.194647   5.117604   1.529079
    13  C    5.044458   3.145320   7.021058   5.506742   2.521328
    14  C    5.044247   3.145820   7.020644   5.506702   2.520919
    15  C    4.944842   3.940100   6.376862   5.692286   2.504621
    16  O    5.043572   4.504685   6.106787   5.927558   2.792089
    17  O    5.825539   4.733755   7.279382   6.418418   3.765206
    18  C    4.943955   3.937377   6.377015   5.690877   2.504171
    19  O    5.042269   4.503309   6.105720   5.925059   2.797779
    20  O    5.829432   4.732161   7.286366   6.421507   3.764067
    21  C    6.708271   5.958679   7.846131   7.326667   4.938506
    22  H    6.241032   5.836619   7.142935   6.864218   5.026110
    23  H    7.283880   6.542142   8.346043   8.004066   5.096301
    24  C    6.703089   5.945561   7.847028   7.320897   4.925189
    25  H    7.421780   6.555461   8.633074   7.932696   5.764060
    26  H    7.300392   6.556537   8.363293   8.018489   5.116745
    27  H    6.274866   5.860425   7.183733   6.889510   5.069032
    28  N    5.229570   3.139587   7.309800   5.596800   2.828028
    29  H    5.894902   3.752513   8.028492   6.114125   3.827734
    30  C    6.067880   4.219138   8.028826   6.382935   3.962552
    31  H    5.801618   4.167334   7.675828   6.034042   4.323814
    32  H    6.879369   5.118851   8.747418   7.286508   4.384694
    33  H    6.602682   4.615359   8.658788   6.791662   4.660810
    34  C    6.068380   4.218832   8.029509   6.383316   3.962938
    35  H    6.881265   5.119195   8.749928   7.288256   4.385320
    36  H    5.803309   4.168611   7.677201   6.036232   4.323659
    37  H    6.601061   4.613331   8.657329   6.789509   4.661312
    38  H    4.531867   3.679252   5.859948   5.476213   1.089765
    39  Cl   4.606318   4.949556   4.912296   5.687164   3.259535
    40  Cl   4.061348   5.664862   2.846848   4.902307   5.446097
    41  C    7.742573   6.867680   8.954193   8.215367   6.160750
    42  H    8.504752   7.804378   9.533325   8.992147   7.049044
    43  H    8.322677   7.203023   9.694108   8.793664   6.352328
    44  H    7.420930   6.563203   8.673754   7.763829   6.292763
                   11         12         13         14         15
    11  C    0.000000
    12  C    2.538383   0.000000
    13  C    1.363339   2.849804   0.000000
    14  C    2.849140   1.363024   2.466620   0.000000
    15  C    3.824550   1.459956   4.291045   2.503550   0.000000
    16  O    4.251986   2.385320   5.023564   3.632237   1.244346
    17  O    4.935146   2.410227   5.112565   2.848471   1.386985
    18  C    1.458594   3.824074   2.501562   4.289257   4.922772
    19  O    2.387033   4.258612   3.632722   5.027843   5.065724
    20  O    2.406996   4.931681   2.840638   5.105965   6.153147
    21  C    6.235512   3.761155   6.539470   4.327322   2.436666
    22  H    6.444981   4.045570   6.888235   4.794254   2.673833
    23  H    6.373208   4.063142   6.777775   4.744243   2.697311
    24  C    3.744820   6.220023   4.307496   6.520681   7.328339
    25  H    4.442337   6.963377   4.727120   7.091160   8.159386
    26  H    4.080374   6.393043   4.756546   6.793981   7.372100
    27  H    4.074652   6.483296   4.806180   6.914288   7.527158
    28  N    2.368518   2.369122   1.389329   1.389970   3.744988
    29  H    3.261692   3.262053   2.055842   2.056318   4.550000
    30  C    4.337585   2.574982   3.756726   1.507493   3.119427
    31  H    4.930022   2.901106   4.480000   2.151743   3.140645
    32  H    4.844655   2.937641   4.366637   2.155281   3.131898
    33  H    4.722665   3.439362   3.847565   2.150679   4.175799
    34  C    2.575309   4.338506   1.507670   3.757400   5.776664
    35  H    2.938928   4.844578   2.155326   4.365527   6.211834
    36  H    2.900300   4.931417   2.152121   4.481980   6.379049
    37  H    3.439647   4.724109   2.150790   3.849073   6.145790
    38  H    2.122127   2.121953   3.265423   3.264792   2.606594
    39  Cl   4.282650   4.282009   5.589752   5.588827   4.124713
    40  Cl   6.390812   6.390428   7.578612   7.577915   6.229173
    41  C    7.335796   4.810879   7.415214   5.018049   3.700182
    42  H    8.290400   5.774814   8.445412   6.077859   4.551127
    43  H    7.372672   4.927097   7.315173   4.927505   3.987244
    44  H    7.431667   4.909276   7.414531   4.972395   3.968468
                   16         17         18         19         20
    16  O    0.000000
    17  O    2.288426   0.000000
    18  C    5.057879   6.155400   0.000000
    19  O    4.890418   6.403536   1.243585   0.000000
    20  O    6.394690   7.302751   1.388145   2.287707   0.000000
    21  C    2.692018   1.480790   7.342271   7.412523   8.563928
    22  H    2.615568   2.095282   7.481149   7.441292   8.764451
    23  H    2.648965   2.096345   7.350940   7.315908   8.587186
    24  C    7.392343   8.551655   2.423301   2.677926   1.468820
    25  H    8.322740   9.321760   3.287838   3.729795   2.035358
    26  H    7.328811   8.610881   2.716671   2.665465   2.109445
    27  H    7.486485   8.808860   2.709795   2.662838   2.108062
    28  N    4.742639   4.234289   3.742539   4.744405   4.225807
    29  H    5.627539   4.817510   4.547587   5.628626   4.808231
    30  C    4.361183   2.727883   5.774612   6.520489   6.513251
    31  H    4.351247   2.498340   6.376707   7.039775   7.203683
    32  H    4.306775   2.505431   6.211229   6.868495   6.992405
    33  H    5.412387   3.808810   6.142644   7.034990   6.674553
    34  C    6.515942   6.521141   3.116859   4.358293   2.717097
    35  H    6.861908   6.998932   3.132168   4.306393   2.496559
    36  H    7.035009   7.211337   3.135014   4.342706   2.486061
    37  H    7.032441   6.684531   4.173289   5.410209   3.797914
    38  H    2.482535   3.958283   2.607746   2.492159   3.958667
    39  Cl   3.236018   5.431240   4.127667   3.245126   5.438024
    40  Cl   5.453244   7.328750   6.230965   5.455757   7.337690
    41  C    4.174789   2.408347   8.553758   8.749607   9.695398
    42  H    4.804994   3.368326   9.451504   9.555066  10.635493
    43  H    4.609134   2.664209   8.615639   8.901799   9.673662
    44  H    4.587637   2.660474   8.724130   9.002433   9.828556
                   21         22         23         24         25
    21  C    0.000000
    22  H    1.089340   0.000000
    23  H    1.089557   1.763059   0.000000
    24  C    9.730683   9.878094   9.668399   0.000000
    25  H   10.562296  10.757516  10.528707   1.084372   0.000000
    26  H    9.703723   9.886105   9.519881   1.087757   1.791751
    27  H    9.938341   9.967369   9.914426   1.087693   1.791282
    28  N    5.710259   6.157059   6.073936   5.689751   6.101911
    29  H    6.287399   6.798085   6.708657   6.266360   6.532848
    30  C    4.083763   4.724190   4.641212   7.946618   8.450522
    31  H    3.712819   4.216765   4.484647   8.629757   9.178117
    32  H    3.683094   4.519533   4.078769   8.379450   8.912800
    33  H    5.124881   5.777976   5.681316   8.133173   8.507160
    34  C    7.966568   8.362521   8.194107   4.062042   4.126567
    35  H    8.397935   8.854174   8.494151   3.663901   3.637060
    36  H    8.649263   8.937657   8.920807   3.689309   3.645691
    37  H    8.155233   8.621579   8.456219   5.103156   5.061111
    38  H    4.923490   5.013560   4.854840   4.912530   5.847212
    39  Cl   5.870803   5.523477   5.709198   5.870806   6.939875
    40  Cl   7.613672   6.883991   7.758958   7.618558   8.595940
    41  C    1.515371   2.179060   2.179401  10.940663  11.707142
    42  H    2.147518   2.524537   2.526149  11.836221  12.638485
    43  H    2.161804   3.082161   2.525994  10.944535  11.654455
    44  H    2.160364   2.524977   3.081374  11.127582  11.858942
                   26         27         28         29         30
    26  H    0.000000
    27  H    1.774148   0.000000
    28  N    6.086513   6.171079   0.000000
    29  H    6.718966   6.804189   1.005127   0.000000
    30  C    8.209334   8.385669   2.427479   2.510525   0.000000
    31  H    8.936761   8.962828   3.189984   3.294452   1.086874
    32  H    8.511715   8.881892   3.139154   3.263327   1.088340
    33  H    8.467613   8.635859   2.466924   2.099690   1.091518
    34  C    4.645660   4.714206   2.427597   2.510949   4.801194
    35  H    4.083696   4.510129   3.137587   3.261512   5.406925
    36  H    4.482000   4.193225   3.191680   3.297332   5.591250
    37  H    5.685208   5.763786   2.467646   2.100723   4.584591
    38  H    4.877794   5.065524   3.662490   4.663888   4.618862
    39  Cl   5.734281   5.591185   6.085313   7.086810   6.837937
    40  Cl   7.779848   6.943319   8.031673   8.943568   8.725370
    41  C   10.952779  11.204739   6.381350   6.761283   4.309458
    42  H   11.801622  12.071845   7.449383   7.849064   5.400220
    43  H   10.925518  11.310640   6.221535   6.505927   4.045469
    44  H   11.244020  11.353989   6.299528   6.595010   4.137428
                   31         32         33         34         35
    31  H    0.000000
    32  H    1.742516   0.000000
    33  H    1.771127   1.769290   0.000000
    34  C    5.589314   5.409265   4.583621   0.000000
    35  H    6.294570   5.844978   5.219244   1.088468   0.000000
    36  H    6.263010   6.298028   5.385750   1.086914   1.742447
    37  H    5.383690   5.223514   4.128689   1.091511   1.769482
    38  H    5.021085   4.820101   5.394286   4.619384   4.820937
    39  Cl   6.967059   7.031244   7.715707   6.838904   7.033475
    40  Cl   8.534379   9.165028   9.552814   8.726191   9.167721
    41  C    3.790500   3.800085   5.191530   8.751276   9.222862
    42  H    4.865941   4.856465   6.271139   9.802524  10.249826
    43  H    3.721639   3.323397   4.822134   8.559447   8.961134
    44  H    3.389496   3.850373   4.932895   8.717900   9.300890
                   36         37         38         39         40
    36  H    0.000000
    37  H    1.771311   0.000000
    38  H    5.020320   5.395393   0.000000
    39  Cl   6.966568   7.716587   2.581471   0.000000
    40  Cl   8.534549   9.552416   5.289836   3.214342   0.000000
    41  C    9.488932   8.766280   6.268461   7.369853   8.973748
    42  H   10.534364   9.843241   7.063849   7.904339   9.394779
    43  H    9.384447   8.496809   6.454696   7.843567   9.713383
    44  H    9.397010   8.658527   6.572396   7.706623   9.025285
                   41         42         43         44
    41  C    0.000000
    42  H    1.091990   0.000000
    43  H    1.090244   1.767500   0.000000
    44  H    1.090068   1.767560   1.769209   0.000000
 Stoichiometry    C18H19Cl2NO4
 Framework group  C1[X(C18H19Cl2NO4)]
 Deg. of freedom   126
 Full point group                 C1      NOp   1
 Largest Abelian subgroup         C1      NOp   1
 Largest concise Abelian subgroup C1      NOp   1
                         Standard orientation:                         
 ---------------------------------------------------------------------
 Center     Atomic      Atomic             Coordinates (Angstroms)
 Number     Number       Type             X           Y           Z
 ---------------------------------------------------------------------
      1          6           0       -0.593513   -0.384014    1.953463
      2          6           0       -0.628583   -0.516704    0.554760
      3          6           0       -1.299833   -1.633488    0.037246
      4          6           0       -1.903495   -2.566789    0.882765
      5          6           0       -1.857211   -2.417034    2.262576
      6          6           0       -1.194069   -1.312489    2.796853
      7          1           0       -0.081229    0.470053    2.366732
      8          1           0       -2.330731   -3.150733    2.896790
      9          1           0       -1.148788   -1.180964    3.868747
     10          6           0        0.076776    0.582252   -0.278315
     11          6           0       -0.570256    1.959439   -0.130091
     12          6           0        1.589296    0.627300   -0.058459
     13          6           0        0.083901    2.985168    0.485253
     14          6           0        2.182254    1.690444    0.554695
     15          6           0        2.300122   -0.521763   -0.611497
     16          8           0        1.752891   -1.405833   -1.295131
     17          8           0        3.659200   -0.575000   -0.339833
     18          6           0       -1.887266    2.062948   -0.748369
     19          8           0       -2.408253    1.160060   -1.426503
     20          8           0       -2.547719    3.267090   -0.546404
     21          6           0        4.393689   -1.736828   -0.890666
     22          1           0        3.921504   -2.645953   -0.520265
     23          1           0        4.293309   -1.722678   -1.975498
     24          6           0       -3.875800    3.384473   -1.162726
     25          1           0       -4.220682    4.375021   -0.887529
     26          1           0       -3.801214    3.280850   -2.242965
     27          1           0       -4.539882    2.616118   -0.773235
     28          7           0        1.404749    2.797733    0.873152
     29          1           0        1.844895    3.538871    1.390130
     30          6           0        3.636560    1.844098    0.920645
     31          1           0        3.968150    1.025221    1.553720
     32          1           0        4.269717    1.825727    0.035626
     33          1           0        3.803944    2.785494    1.447111
     34          6           0       -0.448090    4.363737    0.784588
     35          1           0       -0.701498    4.895435   -0.130751
     36          1           0       -1.360749    4.310840    1.372498
     37          1           0        0.290454    4.950801    1.333500
     38          1           0       -0.087160    0.260619   -1.306549
     39         17           0       -1.408998   -1.908703   -1.765658
     40         17           0       -2.781338   -4.026133    0.225615
     41          6           0        5.834016   -1.604834   -0.438577
     42          1           0        6.420163   -2.443998   -0.818942
     43          1           0        6.279108   -0.682150   -0.811646
     44          1           0        5.903235   -1.606534    0.649290
 ---------------------------------------------------------------------
 Rotational constants (GHZ):           0.1925397           0.1720105           0.1117124
 Leave Link  202 at Tue Mar  3 15:01:18 2026, MaxMem=  2147483648 cpu:               0.1 elap:               0.0
 (Enter /opt/g16/l301.exe)
 Standard basis: 6-31+G(d) (6D, 7F)
 Ernie: Thresh=  0.10000D-02 Tol=  0.10000D-05 Strict=F.
 There are   521 symmetry adapted cartesian basis functions of A   symmetry.
 There are   521 symmetry adapted basis functions of A   symmetry.
   521 basis functions,   924 primitive gaussians,   521 cartesian basis functions
   100 alpha electrons      100 beta electrons
       nuclear repulsion energy      2594.1915638430 Hartrees.
 IExCor= 4639 DFT=T Ex+Corr=wB97XD ExCW=0 ScaHFX=  1.000000
 ScaDFX=  1.000000  1.000000  1.000000  1.000000 ScalE2=  1.000000  1.000000
 IRadAn=      5 IRanWt=     -1 IRanGd=            0 ICorTp=0 IEmpDi=121
 HFx  wShort=  0.000000 wLong=  0.200000 cFull=  0.222036 cShort=  0.000000 cLong=  0.777964
 DFx  wShort=  0.000000 wLong=  0.200000 cFull=  0.000000 cShort=  0.000000 cLong=  1.000000
 NAtoms=   44 NActive=   44 NUniq=   44 SFac= 1.00D+00 NAtFMM=   60 NAOKFM=F Big=F
 Integral buffers will be    131072 words long.
 Raffenetti 2 integral format.
 Two-electron integral symmetry is turned on.
 R6Disp:  Grimme-D2 Dispersion energy=       -0.0347512309 Hartrees.
 Nuclear repulsion after empirical dispersion term =     2594.1568126121 Hartrees.
 Leave Link  301 at Tue Mar  3 15:01:18 2026, MaxMem=  2147483648 cpu:               1.3 elap:               0.1
 (Enter /opt/g16/l302.exe)
 NPDir=0 NMtPBC=     1 NCelOv=     1 NCel=       1 NClECP=     1 NCelD=      1
         NCelK=      1 NCelE2=     1 NClLst=     1 CellRange=     0.0.
 One-electron integrals computed using PRISM.
 One-electron integral symmetry used in STVInt
 NBasis=   521 RedAO= T EigKep=  1.03D-06  NBF=   521
 NBsUse=   517 1.00D-06 EigRej=  5.40D-07 NBFU=   517
 Precomputing XC quadrature grid using
 IXCGrd= 4 IRadAn=           5 IRanWt=          -1 IRanGd=           0 AccXCQ= 0.00D+00.
 Generated NRdTot=       0 NPtTot=           0 NUsed=           0 NTot=          32
 NSgBfM=   518   518   518   518   518 MxSgAt=    44 MxSgA2=    44.
 Leave Link  302 at Tue Mar  3 15:01:19 2026, MaxMem=  2147483648 cpu:              16.0 elap:               1.0
 (Enter /opt/g16/l303.exe)
 DipDrv:  MaxL=1.
 Leave Link  303 at Tue Mar  3 15:01:19 2026, MaxMem=  2147483648 cpu:               1.9 elap:               0.1
 (Enter /opt/g16/l401.exe)
 ExpMin= 4.38D-02 ExpMax= 2.52D+04 ExpMxC= 3.78D+03 IAcc=3 IRadAn=         5 AccDes= 0.00D+00
 Harris functional with IExCor= 4639 and IRadAn=       5 diagonalized for initial guess.
 HarFok:  IExCor= 4639 AccDes= 0.00D+00 IRadAn=         5 IDoV= 1 UseB2=F ITyADJ=14
 ICtDFT=  3500011 ScaDFX=  1.000000  1.000000  1.000000  1.000000
 FoFCou: FMM=F IPFlag=           0 FMFlag=      100000 FMFlg1=           0
         NFxFlg=           0 DoJE=T BraDBF=F KetDBF=T FulRan=T
         wScrn=  0.000000 ICntrl=       500 IOpCl=  0 I1Cent=   200000004 NGrid=           0
         NMat0=    1 NMatS0=      1 NMatT0=    0 NMatD0=    1 NMtDS0=    0 NMtDT0=    0
 Petite list used in FoFCou.
 Harris En= -1913.37157699448    
 JPrj=0 DoOrth=F DoCkMO=F.
 Leave Link  401 at Tue Mar  3 15:01:22 2026, MaxMem=  2147483648 cpu:              49.5 elap:               3.1
 (Enter /opt/g16/l502.exe)
 Integral symmetry usage will be decided dynamically.
 Closed shell SCF:
 Using DIIS extrapolation, IDIIS=  1040.
 NGot=  2147483648 LenX=  2146926076 LenY=  2146654114
 Requested convergence on RMS density matrix=1.00D-08 within 128 cycles.
 Requested convergence on MAX density matrix=1.00D-06.
 Requested convergence on             energy=1.00D-06.
 No special actions if energy rises.
 Fock matrices will be formed incrementally for  20 cycles.

 Cycle   1  Pass 1  IDiag  1:
 FoFJK:  IHMeth= 1 ICntrl=       0 DoSepK=T KAlg= 0 I1Cent=           0 FoldK=F
 IRaf=         1 NMat=       1 IRICut=       1 DoRegI=T DoRafI=F ISym2E= 0 IDoP0=0 IntGTp=1.
 FoFCou: FMM=F IPFlag=           0 FMFlag=      100000 FMFlg1=           0
         NFxFlg=           0 DoJE=T BraDBF=F KetDBF=F FulRan=T
         wScrn=  0.000000 ICntrl=       500 IOpCl=  0 I1Cent=           0 NGrid=           0
         NMat0=    1 NMatS0=      1 NMatT0=    0 NMatD0=    1 NMtDS0=    0 NMtDT0=    0
 Symmetry not used in FoFCou.
 E= -1972.40249274549    
 DIIS: error= 9.85D-02 at cycle   1 NSaved=   1.
 NSaved= 1 IEnMin= 1 EnMin= -1972.40249274549     IErMin= 1 ErrMin= 9.85D-02
 ErrMax= 9.85D-02  0.00D+00 EMaxC= 1.00D-01 BMatC= 1.65D+00 BMatP= 1.65D+00
 IDIUse=3 WtCom= 1.52D-02 WtEn= 9.85D-01
 Coeff-Com:  0.100D+01
 Coeff-En:   0.100D+01
 Coeff:      0.100D+01
 Gap=     0.462 Goal=   None    Shift=    0.000
 GapD=    0.462 DampG=2.000 DampE=0.500 DampFc=1.0000 IDamp=-1.
 RMSDP=4.86D-02 MaxDP=5.63D+00              OVMax= 1.90D-01

 Cycle   2  Pass 1  IDiag  1:
 RMSU=  3.28D-02    CP:  7.17D-01
 E= -1972.64611173940     Delta-E=       -0.243618993913 Rises=F Damp=F
 DIIS: error= 2.24D-02 at cycle   2 NSaved=   2.
 NSaved= 2 IEnMin= 2 EnMin= -1972.64611173940     IErMin= 2 ErrMin= 2.24D-02
 ErrMax= 2.24D-02  0.00D+00 EMaxC= 1.00D-01 BMatC= 4.97D-01 BMatP= 1.65D+00
 IDIUse=3 WtCom= 7.76D-01 WtEn= 2.24D-01
 Coeff-Com:  0.317D+00 0.683D+00
 Coeff-En:   0.354D+00 0.646D+00
 Coeff:      0.326D+00 0.674D+00
 Gap=     0.438 Goal=   None    Shift=    0.000
 RMSDP=2.84D-02 MaxDP=3.54D+00 DE=-2.44D-01 OVMax= 1.34D-01

 Cycle   3  Pass 1  IDiag  1:
 RMSU=  1.80D-02    CP:  6.77D-01  3.48D-01
 E= -1972.96381399306     Delta-E=       -0.317702253662 Rises=F Damp=F
 DIIS: error= 8.30D-03 at cycle   3 NSaved=   3.
 NSaved= 3 IEnMin= 3 EnMin= -1972.96381399306     IErMin= 3 ErrMin= 8.30D-03
 ErrMax= 8.30D-03  0.00D+00 EMaxC= 1.00D-01 BMatC= 1.26D-01 BMatP= 4.97D-01
 IDIUse=3 WtCom= 9.17D-01 WtEn= 8.30D-02
 Coeff-Com:  0.522D-01 0.340D+00 0.607D+00
 Coeff-En:   0.000D+00 0.163D+00 0.837D+00
 Coeff:      0.478D-01 0.326D+00 0.626D+00
 Gap=     0.305 Goal=   None    Shift=    0.000
 RMSDP=9.94D-03 MaxDP=1.12D+00 DE=-3.18D-01 OVMax= 7.03D-02

 Cycle   4  Pass 1  IDiag  1:
 RMSU=  5.85D-03    CP:  6.37D-01  4.95D-01  7.84D-01
 E= -1973.05589297275     Delta-E=       -0.092078979690 Rises=F Damp=F
 DIIS: error= 2.98D-03 at cycle   4 NSaved=   4.
 NSaved= 4 IEnMin= 4 EnMin= -1973.05589297275     IErMin= 4 ErrMin= 2.98D-03
 ErrMax= 2.98D-03  0.00D+00 EMaxC= 1.00D-01 BMatC= 1.26D-02 BMatP= 1.26D-01
 IDIUse=3 WtCom= 9.70D-01 WtEn= 2.98D-02
 Coeff-Com:  0.452D-02 0.118D+00 0.328D+00 0.549D+00
 Coeff-En:   0.000D+00 0.000D+00 0.000D+00 0.100D+01
 Coeff:      0.439D-02 0.115D+00 0.318D+00 0.563D+00
 Gap=     0.289 Goal=   None    Shift=    0.000
 RMSDP=2.89D-03 MaxDP=2.19D-01 DE=-9.21D-02 OVMax= 2.04D-02

 Cycle   5  Pass 1  IDiag  1:
 RMSU=  1.53D-03    CP:  6.28D-01  4.87D-01  8.33D-01  6.58D-01
 E= -1973.06565933873     Delta-E=       -0.009766365979 Rises=F Damp=F
 DIIS: error= 5.90D-04 at cycle   5 NSaved=   5.
 NSaved= 5 IEnMin= 5 EnMin= -1973.06565933873     IErMin= 5 ErrMin= 5.90D-04
 ErrMax= 5.90D-04  0.00D+00 EMaxC= 1.00D-01 BMatC= 7.79D-04 BMatP= 1.26D-02
 IDIUse=3 WtCom= 9.94D-01 WtEn= 5.90D-03
 Coeff-Com: -0.201D-02 0.243D-01 0.990D-01 0.270D+00 0.609D+00
 Coeff-En:   0.000D+00 0.000D+00 0.000D+00 0.000D+00 0.100D+01
 Coeff:     -0.200D-02 0.242D-01 0.984D-01 0.268D+00 0.611D+00
 Gap=     0.289 Goal=   None    Shift=    0.000
 RMSDP=8.12D-04 MaxDP=8.72D-02 DE=-9.77D-03 OVMax= 5.59D-03

 Cycle   6  Pass 1  IDiag  1:
 RMSU=  6.10D-04    CP:  6.28D-01  4.88D-01  8.57D-01  6.87D-01  8.31D-01
 E= -1973.06631509826     Delta-E=       -0.000655759534 Rises=F Damp=F
 DIIS: error= 1.94D-04 at cycle   6 NSaved=   6.
 NSaved= 6 IEnMin= 6 EnMin= -1973.06631509826     IErMin= 6 ErrMin= 1.94D-04
 ErrMax= 1.94D-04  0.00D+00 EMaxC= 1.00D-01 BMatC= 8.08D-05 BMatP= 7.79D-04
 IDIUse=3 WtCom= 9.98D-01 WtEn= 1.94D-03
 Coeff-Com: -0.144D-02-0.840D-02-0.479D-02 0.351D-01 0.268D+00 0.712D+00
 Coeff-En:   0.000D+00 0.000D+00 0.000D+00 0.000D+00 0.000D+00 0.100D+01
 Coeff:     -0.144D-02-0.838D-02-0.478D-02 0.351D-01 0.267D+00 0.712D+00
 Gap=     0.289 Goal=   None    Shift=    0.000
 RMSDP=4.92D-04 MaxDP=6.25D-02 DE=-6.56D-04 OVMax= 2.58D-03

 Cycle   7  Pass 1  IDiag  1:
 RMSU=  3.59D-04    CP:  6.25D-01  4.90D-01  8.63D-01  7.04D-01  8.50D-01
                    CP:  9.01D-01
 E= -1973.06639687785     Delta-E=       -0.000081779585 Rises=F Damp=F
 DIIS: error= 7.04D-05 at cycle   7 NSaved=   7.
 NSaved= 7 IEnMin= 7 EnMin= -1973.06639687785     IErMin= 7 ErrMin= 7.04D-05
 ErrMax= 7.04D-05  0.00D+00 EMaxC= 1.00D-01 BMatC= 1.08D-05 BMatP= 8.08D-05
 IDIUse=1 WtCom= 1.00D+00 WtEn= 0.00D+00
 Coeff-Com: -0.255D-03-0.767D-02-0.162D-01-0.241D-01 0.346D-01 0.314D+00
 Coeff-Com:  0.699D+00
 Coeff:     -0.255D-03-0.767D-02-0.162D-01-0.241D-01 0.346D-01 0.314D+00
 Coeff:      0.699D+00
 Gap=     0.289 Goal=   None    Shift=    0.000
 RMSDP=1.74D-04 MaxDP=1.47D-02 DE=-8.18D-05 OVMax= 1.05D-03

 Cycle   8  Pass 1  IDiag  1:
 RMSU=  1.15D-04    CP:  6.25D-01  4.90D-01  8.68D-01  7.10D-01  8.79D-01
                    CP:  9.72D-01  1.12D+00
 E= -1973.06641151938     Delta-E=       -0.000014641528 Rises=F Damp=F
 DIIS: error= 1.79D-05 at cycle   8 NSaved=   8.
 NSaved= 8 IEnMin= 8 EnMin= -1973.06641151938     IErMin= 8 ErrMin= 1.79D-05
 ErrMax= 1.79D-05  0.00D+00 EMaxC= 1.00D-01 BMatC= 8.16D-07 BMatP= 1.08D-05
 IDIUse=1 WtCom= 1.00D+00 WtEn= 0.00D+00
 Coeff-Com:  0.688D-04-0.170D-02-0.482D-02-0.134D-01-0.200D-01 0.142D-01
 Coeff-Com:  0.203D+00 0.822D+00
 Coeff:      0.688D-04-0.170D-02-0.482D-02-0.134D-01-0.200D-01 0.142D-01
 Coeff:      0.203D+00 0.822D+00
 Gap=     0.289 Goal=   None    Shift=    0.000
 RMSDP=5.82D-05 MaxDP=6.12D-03 DE=-1.46D-05 OVMax= 7.05D-04

 Cycle   9  Pass 1  IDiag  1:
 RMSU=  2.68D-05    CP:  6.25D-01  4.91D-01  8.68D-01  7.13D-01  8.76D-01
                    CP:  9.91D-01  1.20D+00  1.03D+00
 E= -1973.06641324583     Delta-E=       -0.000001726448 Rises=F Damp=F
 DIIS: error= 1.36D-05 at cycle   9 NSaved=   9.
 NSaved= 9 IEnMin= 9 EnMin= -1973.06641324583     IErMin= 9 ErrMin= 1.36D-05
 ErrMax= 1.36D-05  0.00D+00 EMaxC= 1.00D-01 BMatC= 2.09D-07 BMatP= 8.16D-07
 IDIUse=1 WtCom= 1.00D+00 WtEn= 0.00D+00
 Coeff-Com:  0.629D-04 0.711D-03 0.110D-02-0.154D-02-0.147D-01-0.546D-01
 Coeff-Com: -0.402D-01 0.364D+00 0.745D+00
 Coeff:      0.629D-04 0.711D-03 0.110D-02-0.154D-02-0.147D-01-0.546D-01
 Coeff:     -0.402D-01 0.364D+00 0.745D+00
 Gap=     0.289 Goal=   None    Shift=    0.000
 RMSDP=2.40D-05 MaxDP=1.64D-03 DE=-1.73D-06 OVMax= 2.91D-04

 Cycle  10  Pass 1  IDiag  1:
 RMSU=  1.49D-05    CP:  6.25D-01  4.91D-01  8.69D-01  7.12D-01  8.75D-01
                    CP:  9.93D-01  1.24D+00  1.07D+00  1.31D+00
 E= -1973.06641364140     Delta-E=       -0.000000395576 Rises=F Damp=F
 DIIS: error= 3.51D-06 at cycle  10 NSaved=  10.
 NSaved=10 IEnMin=10 EnMin= -1973.06641364140     IErMin=10 ErrMin= 3.51D-06
 ErrMax= 3.51D-06  0.00D+00 EMaxC= 1.00D-01 BMatC= 2.26D-08 BMatP= 2.09D-07
 IDIUse=1 WtCom= 1.00D+00 WtEn= 0.00D+00
 Coeff-Com:  0.109D-04 0.476D-03 0.107D-02 0.132D-02-0.159D-02-0.201D-01
 Coeff-Com: -0.397D-01 0.397D-02 0.261D+00 0.794D+00
 Coeff:      0.109D-04 0.476D-03 0.107D-02 0.132D-02-0.159D-02-0.201D-01
 Coeff:     -0.397D-01 0.397D-02 0.261D+00 0.794D+00
 Gap=     0.289 Goal=   None    Shift=    0.000
 RMSDP=1.61D-05 MaxDP=1.48D-03 DE=-3.96D-07 OVMax= 1.41D-04

 Cycle  11  Pass 1  IDiag  1:
 RMSU=  6.71D-06    CP:  6.25D-01  4.91D-01  8.68D-01  7.12D-01  8.72D-01
                    CP:  9.88D-01  1.25D+00  1.08D+00  1.51D+00  1.02D+00
 E= -1973.06641369508     Delta-E=       -0.000000053680 Rises=F Damp=F
 DIIS: error= 2.04D-06 at cycle  11 NSaved=  11.
 NSaved=11 IEnMin=11 EnMin= -1973.06641369508     IErMin=11 ErrMin= 2.04D-06
 ErrMax= 2.04D-06  0.00D+00 EMaxC= 1.00D-01 BMatC= 3.45D-09 BMatP= 2.26D-08
 IDIUse=1 WtCom= 1.00D+00 WtEn= 0.00D+00
 Coeff-Com: -0.374D-05 0.449D-04 0.164D-03 0.601D-03 0.180D-02 0.176D-02
 Coeff-Com: -0.564D-02-0.529D-01-0.340D-01 0.246D+00 0.842D+00
 Coeff:     -0.374D-05 0.449D-04 0.164D-03 0.601D-03 0.180D-02 0.176D-02
 Coeff:     -0.564D-02-0.529D-01-0.340D-01 0.246D+00 0.842D+00
 Gap=     0.289 Goal=   None    Shift=    0.000
 RMSDP=4.25D-06 MaxDP=3.28D-04 DE=-5.37D-08 OVMax= 6.21D-05

 Cycle  12  Pass 1  IDiag  1:
 RMSU=  2.25D-06    CP:  6.25D-01  4.91D-01  8.68D-01  7.12D-01  8.71D-01
                    CP:  9.86D-01  1.25D+00  1.08D+00  1.59D+00  1.18D+00
                    CP:  1.04D+00
 E= -1973.06641370531     Delta-E=       -0.000000010226 Rises=F Damp=F
 DIIS: error= 1.00D-06 at cycle  12 NSaved=  12.
 NSaved=12 IEnMin=12 EnMin= -1973.06641370531     IErMin=12 ErrMin= 1.00D-06
 ErrMax= 1.00D-06  0.00D+00 EMaxC= 1.00D-01 BMatC= 6.03D-10 BMatP= 3.45D-09
 IDIUse=1 WtCom= 1.00D+00 WtEn= 0.00D+00
 Coeff-Com: -0.311D-05-0.637D-04-0.123D-03-0.662D-05 0.976D-03 0.419D-02
 Coeff-Com:  0.503D-02-0.189D-01-0.603D-01-0.547D-01 0.271D+00 0.853D+00
 Coeff:     -0.311D-05-0.637D-04-0.123D-03-0.662D-05 0.976D-03 0.419D-02
 Coeff:      0.503D-02-0.189D-01-0.603D-01-0.547D-01 0.271D+00 0.853D+00
 Gap=     0.289 Goal=   None    Shift=    0.000
 RMSDP=1.50D-06 MaxDP=1.09D-04 DE=-1.02D-08 OVMax= 3.51D-05

 Cycle  13  Pass 1  IDiag  1:
 RMSU=  9.27D-07    CP:  6.25D-01  4.91D-01  8.68D-01  7.12D-01  8.71D-01
                    CP:  9.86D-01  1.25D+00  1.08D+00  1.60D+00  1.22D+00
                    CP:  1.12D+00  1.08D+00
 E= -1973.06641370734     Delta-E=       -0.000000002028 Rises=F Damp=F
 DIIS: error= 3.44D-07 at cycle  13 NSaved=  13.
 NSaved=13 IEnMin=13 EnMin= -1973.06641370734     IErMin=13 ErrMin= 3.44D-07
 ErrMax= 3.44D-07  0.00D+00 EMaxC= 1.00D-01 BMatC= 1.44D-10 BMatP= 6.03D-10
 IDIUse=1 WtCom= 1.00D+00 WtEn= 0.00D+00
 Coeff-Com: -0.779D-06-0.363D-04-0.868D-04-0.117D-03 0.627D-04 0.139D-02
 Coeff-Com:  0.304D-02 0.199D-02-0.187D-01-0.628D-01-0.318D-01 0.358D+00
 Coeff-Com:  0.749D+00
 Coeff:     -0.779D-06-0.363D-04-0.868D-04-0.117D-03 0.627D-04 0.139D-02
 Coeff:      0.304D-02 0.199D-02-0.187D-01-0.628D-01-0.318D-01 0.358D+00
 Coeff:      0.749D+00
 Gap=     0.289 Goal=   None    Shift=    0.000
 RMSDP=6.77D-07 MaxDP=5.48D-05 DE=-2.03D-09 OVMax= 1.32D-05

 Cycle  14  Pass 1  IDiag  1:
 RMSU=  3.15D-07    CP:  6.25D-01  4.91D-01  8.68D-01  7.12D-01  8.71D-01
                    CP:  9.86D-01  1.25D+00  1.08D+00  1.60D+00  1.23D+00
                    CP:  1.10D+00  1.22D+00  1.04D+00
 E= -1973.06641370772     Delta-E=       -0.000000000387 Rises=F Damp=F
 DIIS: error= 1.79D-07 at cycle  14 NSaved=  14.
 NSaved=14 IEnMin=14 EnMin= -1973.06641370772     IErMin=14 ErrMin= 1.79D-07
 ErrMax= 1.79D-07  0.00D+00 EMaxC= 1.00D-01 BMatC= 2.02D-11 BMatP= 1.44D-10
 IDIUse=1 WtCom= 1.00D+00 WtEn= 0.00D+00
 Coeff-Com:  0.327D-06 0.438D-06-0.613D-05-0.372D-04-0.203D-03-0.397D-03
 Coeff-Com: -0.686D-04 0.460D-02 0.582D-02-0.109D-01-0.676D-01-0.597D-01
 Coeff-Com:  0.241D+00 0.888D+00
 Coeff:      0.327D-06 0.438D-06-0.613D-05-0.372D-04-0.203D-03-0.397D-03
 Coeff:     -0.686D-04 0.460D-02 0.582D-02-0.109D-01-0.676D-01-0.597D-01
 Coeff:      0.241D+00 0.888D+00
 Gap=     0.289 Goal=   None    Shift=    0.000
 RMSDP=3.20D-07 MaxDP=2.67D-05 DE=-3.87D-10 OVMax= 7.30D-06

 Cycle  15  Pass 1  IDiag  1:
 RMSU=  1.25D-07    CP:  6.25D-01  4.91D-01  8.68D-01  7.12D-01  8.71D-01
                    CP:  9.86D-01  1.25D+00  1.08D+00  1.60D+00  1.23D+00
                    CP:  1.09D+00  1.24D+00  1.11D+00  1.26D+00
 E= -1973.06641370779     Delta-E=       -0.000000000068 Rises=F Damp=F
 DIIS: error= 4.02D-08 at cycle  15 NSaved=  15.
 NSaved=15 IEnMin=15 EnMin= -1973.06641370779     IErMin=15 ErrMin= 4.02D-08
 ErrMax= 4.02D-08  0.00D+00 EMaxC= 1.00D-01 BMatC= 4.09D-12 BMatP= 2.02D-11
 IDIUse=1 WtCom= 1.00D+00 WtEn= 0.00D+00
 Coeff-Com:  0.197D-06 0.406D-05 0.689D-05-0.805D-06-0.954D-04-0.316D-03
 Coeff-Com: -0.383D-03 0.177D-02 0.476D-02 0.227D-02-0.241D-01-0.673D-01
 Coeff-Com:  0.969D-02 0.378D+00 0.696D+00
 Coeff:      0.197D-06 0.406D-05 0.689D-05-0.805D-06-0.954D-04-0.316D-03
 Coeff:     -0.383D-03 0.177D-02 0.476D-02 0.227D-02-0.241D-01-0.673D-01
 Coeff:      0.969D-02 0.378D+00 0.696D+00
 Gap=     0.289 Goal=   None    Shift=    0.000
 RMSDP=1.31D-07 MaxDP=9.23D-06 DE=-6.82D-11 OVMax= 1.50D-06

 Cycle  16  Pass 1  IDiag  1:
 RMSU=  5.47D-08    CP:  6.25D-01  4.91D-01  8.68D-01  7.12D-01  8.71D-01
                    CP:  9.86D-01  1.25D+00  1.08D+00  1.60D+00  1.22D+00
                    CP:  1.08D+00  1.22D+00  1.14D+00  1.39D+00  9.49D-01
 E= -1973.06641370780     Delta-E=       -0.000000000011 Rises=F Damp=F
 DIIS: error= 1.77D-08 at cycle  16 NSaved=  16.
 NSaved=16 IEnMin=16 EnMin= -1973.06641370780     IErMin=16 ErrMin= 1.77D-08
 ErrMax= 1.77D-08  0.00D+00 EMaxC= 1.00D-01 BMatC= 8.57D-13 BMatP= 4.09D-12
 IDIUse=1 WtCom= 1.00D+00 WtEn= 0.00D+00
 Coeff-Com:  0.231D-07 0.171D-05 0.416D-05 0.699D-05-0.794D-05-0.707D-04
 Coeff-Com: -0.170D-03 0.277D-05 0.122D-02 0.281D-02 0.158D-02-0.208D-01
 Coeff-Com: -0.409D-01 0.959D-02 0.337D+00 0.710D+00
 Coeff:      0.231D-07 0.171D-05 0.416D-05 0.699D-05-0.794D-05-0.707D-04
 Coeff:     -0.170D-03 0.277D-05 0.122D-02 0.281D-02 0.158D-02-0.208D-01
 Coeff:     -0.409D-01 0.959D-02 0.337D+00 0.710D+00
 Gap=     0.289 Goal=   None    Shift=    0.000
 RMSDP=7.10D-08 MaxDP=4.89D-06 DE=-1.09D-11 OVMax= 4.90D-07

 Cycle  17  Pass 1  IDiag  1:
 RMSU=  2.13D-08    CP:  6.25D-01  4.91D-01  8.68D-01  7.12D-01  8.71D-01
                    CP:  9.86D-01  1.25D+00  1.08D+00  1.60D+00  1.22D+00
                    CP:  1.08D+00  1.21D+00  1.14D+00  1.43D+00  1.09D+00
                    CP:  9.85D-01
 E= -1973.06641370777     Delta-E=        0.000000000033 Rises=F Damp=F
 DIIS: error= 7.84D-09 at cycle  17 NSaved=  17.
 NSaved=17 IEnMin=16 EnMin= -1973.06641370780     IErMin=17 ErrMin= 7.84D-09
 ErrMax= 7.84D-09  0.00D+00 EMaxC= 1.00D-01 BMatC= 1.17D-13 BMatP= 8.57D-13
 IDIUse=1 WtCom= 1.00D+00 WtEn= 0.00D+00
 Coeff-Com: -0.197D-07 0.881D-07 0.663D-06 0.331D-05 0.117D-04 0.225D-04
 Coeff-Com: -0.123D-04-0.276D-03-0.254D-03 0.671D-03 0.457D-02 0.165D-02
 Coeff-Com: -0.175D-01-0.550D-01 0.342D-01 0.315D+00 0.717D+00
 Coeff:     -0.197D-07 0.881D-07 0.663D-06 0.331D-05 0.117D-04 0.225D-04
 Coeff:     -0.123D-04-0.276D-03-0.254D-03 0.671D-03 0.457D-02 0.165D-02
 Coeff:     -0.175D-01-0.550D-01 0.342D-01 0.315D+00 0.717D+00
 Gap=     0.289 Goal=   None    Shift=    0.000
 RMSDP=2.72D-08 MaxDP=2.24D-06 DE= 3.27D-11 OVMax= 2.02D-07

 Cycle  18  Pass 1  IDiag  1:
 RMSU=  8.81D-09    CP:  6.25D-01  4.91D-01  8.68D-01  7.12D-01  8.71D-01
                    CP:  9.86D-01  1.25D+00  1.08D+00  1.60D+00  1.22D+00
                    CP:  1.08D+00  1.21D+00  1.13D+00  1.45D+00  1.12D+00
                    CP:  1.13D+00  1.11D+00
 E= -1973.06641370777     Delta-E=       -0.000000000004 Rises=F Damp=F
 DIIS: error= 1.80D-09 at cycle  18 NSaved=  18.
 NSaved=18 IEnMin=16 EnMin= -1973.06641370780     IErMin=18 ErrMin= 1.80D-09
 ErrMax= 1.80D-09  0.00D+00 EMaxC= 1.00D-01 BMatC= 1.14D-14 BMatP= 1.17D-13
 IDIUse=1 WtCom= 1.00D+00 WtEn= 0.00D+00
 Coeff-Com: -0.744D-08-0.208D-06-0.379D-06 0.988D-07 0.492D-05 0.184D-04
 Coeff-Com:  0.209D-04-0.863D-04-0.255D-03-0.172D-03 0.141D-02 0.325D-02
 Coeff-Com:  0.881D-04-0.211D-01-0.380D-01 0.128D-01 0.252D+00 0.790D+00
 Coeff:     -0.744D-08-0.208D-06-0.379D-06 0.988D-07 0.492D-05 0.184D-04
 Coeff:      0.209D-04-0.863D-04-0.255D-03-0.172D-03 0.141D-02 0.325D-02
 Coeff:      0.881D-04-0.211D-01-0.380D-01 0.128D-01 0.252D+00 0.790D+00
 Gap=     0.289 Goal=   None    Shift=    0.000
 RMSDP=1.12D-08 MaxDP=9.80D-07 DE=-3.64D-12 OVMax= 8.65D-08

 Cycle  19  Pass 1  IDiag  1:
 RMSU=  3.47D-09    CP:  6.25D-01  4.91D-01  8.68D-01  7.12D-01  8.71D-01
                    CP:  9.86D-01  1.25D+00  1.08D+00  1.60D+00  1.22D+00
                    CP:  1.08D+00  1.21D+00  1.13D+00  1.45D+00  1.14D+00
                    CP:  1.17D+00  1.24D+00  1.30D+00
 E= -1973.06641370777     Delta-E=        0.000000000005 Rises=F Damp=F
 DIIS: error= 7.23D-10 at cycle  19 NSaved=  19.
 NSaved=19 IEnMin=16 EnMin= -1973.06641370780     IErMin=19 ErrMin= 7.23D-10
 ErrMax= 7.23D-10  0.00D+00 EMaxC= 1.00D-01 BMatC= 8.04D-16 BMatP= 1.14D-14
 IDIUse=1 WtCom= 1.00D+00 WtEn= 0.00D+00
 Large coefficients: NSaved= 19 BigCof=    0.00 CofMax=   10.00 Det=-3.76D-15
 Inversion failed.  Reducing to 18 matrices.
 Large coefficients: NSaved= 18 BigCof=    0.00 CofMax=   10.00 Det=-6.60D-15
 Inversion failed.  Reducing to 17 matrices.
 Large coefficients: NSaved= 17 BigCof=    0.00 CofMax=   10.00 Det=-6.97D-15
 Inversion failed.  Reducing to 16 matrices.
 Large coefficients: NSaved= 16 BigCof=    0.00 CofMax=   10.00 Det=-7.17D-15
 Inversion failed.  Reducing to 15 matrices.
 Coeff-Com:  0.125D-06 0.875D-06 0.183D-05-0.187D-05-0.269D-04-0.477D-04
 Coeff-Com: -0.104D-04 0.335D-03 0.149D-02-0.620D-04-0.113D-01-0.233D-01
 Coeff-Com: -0.114D-01 0.172D+00 0.872D+00
 Coeff:      0.125D-06 0.875D-06 0.183D-05-0.187D-05-0.269D-04-0.477D-04
 Coeff:     -0.104D-04 0.335D-03 0.149D-02-0.620D-04-0.113D-01-0.233D-01
 Coeff:     -0.114D-01 0.172D+00 0.872D+00
 Gap=     0.289 Goal=   None    Shift=    0.000
 RMSDP=3.76D-09 MaxDP=3.80D-07 DE= 5.46D-12 OVMax= 2.85D-08

 SCF Done:  E(RwB97XD) =  -1973.06641371     A.U. after   19 cycles
            NFock= 19  Conv=0.38D-08     -V/T= 2.0067
 KE= 1.960025867460D+03 PE=-9.826443467061D+03 EE= 3.299194373281D+03
 Leave Link  502 at Tue Mar  3 15:07:37 2026, MaxMem=  2147483648 cpu:            5987.8 elap:             374.8
 (Enter /opt/g16/l601.exe)
 Copying SCF densities to generalized density rwf, IOpCl= 0 IROHF=0.

 **********************************************************************

            Population analysis using the SCF Density.

 **********************************************************************

 Orbital symmetries:
       Occupied  (A) (A) (A) (A) (A) (A) (A) (A) (A) (A) (A) (A)
                 (A) (A) (A) (A) (A) (A) (A) (A) (A) (A) (A) (A)
                 (A) (A) (A) (A) (A) (A) (A) (A) (A) (A) (A) (A)
                 (A) (A) (A) (A) (A) (A) (A) (A) (A) (A) (A) (A)
                 (A) (A) (A) (A) (A) (A) (A) (A) (A) (A) (A) (A)
                 (A) (A) (A) (A) (A) (A) (A) (A) (A) (A) (A) (A)
                 (A) (A) (A) (A) (A) (A) (A) (A) (A) (A) (A) (A)
                 (A) (A) (A) (A) (A) (A) (A) (A) (A) (A) (A) (A)
                 (A) (A) (A) (A)
       Virtual   (A) (A) (A) (A) (A) (A) (A) (A) (A) (A) (A) (A)
                 (A) (A) (A) (A) (A) (A) (A) (A) (A) (A) (A) (A)
                 (A) (A) (A) (A) (A) (A) (A) (A) (A) (A) (A) (A)
                 (A) (A) (A) (A) (A) (A) (A) (A) (A) (A) (A) (A)
                 (A) (A) (A) (A) (A) (A) (A) (A) (A) (A) (A) (A)
                 (A) (A) (A) (A) (A) (A) (A) (A) (A) (A) (A) (A)
                 (A) (A) (A) (A) (A) (A) (A) (A) (A) (A) (A) (A)
                 (A) (A) (A) (A) (A) (A) (A) (A) (A) (A) (A) (A)
                 (A) (A) (A) (A) (A) (A) (A) (A) (A) (A) (A) (A)
                 (A) (A) (A) (A) (A) (A) (A) (A) (A) (A) (A) (A)
                 (A) (A) (A) (A) (A) (A) (A) (A) (A) (A) (A) (A)
                 (A) (A) (A) (A) (A) (A) (A) (A) (A) (A) (A) (A)
                 (A) (A) (A) (A) (A) (A) (A) (A) (A) (A) (A) (A)
                 (A) (A) (A) (A) (A) (A) (A) (A) (A) (A) (A) (A)
                 (A) (A) (A) (A) (A) (A) (A) (A) (A) (A) (A) (A)
                 (A) (A) (A) (A) (A) (A) (A) (A) (A) (A) (A) (A)
                 (A) (A) (A) (A) (A) (A) (A) (A) (A) (A) (A) (A)
                 (A) (A) (A) (A) (A) (A) (A) (A) (A) (A) (A) (A)
                 (A) (A) (A) (A) (A) (A) (A) (A) (A) (A) (A) (A)
                 (A) (A) (A) (A) (A) (A) (A) (A) (A) (A) (A) (A)
                 (A) (A) (A) (A) (A) (A) (A) (A) (A) (A) (A) (A)
                 (A) (A) (A) (A) (A) (A) (A) (A) (A) (A) (A) (A)
                 (A) (A) (A) (A) (A) (A) (A) (A) (A) (A) (A) (A)
                 (A) (A) (A) (A) (A) (A) (A) (A) (A) (A) (A) (A)
                 (A) (A) (A) (A) (A) (A) (A) (A) (A) (A) (A) (A)
                 (A) (A) (A) (A) (A) (A) (A) (A) (A) (A) (A) (A)
                 (A) (A) (A) (A) (A) (A) (A) (A) (A) (A) (A) (A)
                 (A) (A) (A) (A) (A) (A) (A) (A) (A) (A) (A) (A)
                 (A) (A) (A) (A) (A) (A) (A) (A) (A) (A) (A) (A)
                 (A) (A) (A) (A) (A) (A) (A) (A) (A) (A) (A) (A)
                 (A) (A) (A) (A) (A) (A) (A) (A) (A) (A) (A) (A)
                 (A) (A) (A) (A) (A) (A) (A) (A) (A) (A) (A) (A)
                 (A) (A) (A) (A) (A) (A) (A) (A) (A) (A) (A) (A)
                 (A) (A) (A) (A) (A) (A) (A) (A) (A) (A) (A) (A)
                 (A) (A) (A) (A) (A) (A) (A) (A) (A)
 The electronic state is 1-A.
 Alpha  occ. eigenvalues -- -101.71040-101.69608 -19.31856 -19.31517 -19.25599
 Alpha  occ. eigenvalues --  -19.25450 -14.52491 -10.43222 -10.43125 -10.38661
 Alpha  occ. eigenvalues --  -10.38615 -10.37427 -10.37302 -10.35704 -10.35104
 Alpha  occ. eigenvalues --  -10.32723 -10.32561 -10.32217 -10.32199 -10.32160
 Alpha  occ. eigenvalues --  -10.32148 -10.31835 -10.31479 -10.31195 -10.30059
 Alpha  occ. eigenvalues --   -9.57885  -9.56379  -7.32811  -7.31793  -7.31762
 Alpha  occ. eigenvalues --   -7.31335  -7.30273  -7.30256  -1.18636  -1.18378
 Alpha  occ. eigenvalues --   -1.10014  -1.09772  -1.09597  -0.99581  -0.94201
 Alpha  occ. eigenvalues --   -0.93821  -0.91841  -0.91634  -0.87616  -0.85915
 Alpha  occ. eigenvalues --   -0.84107  -0.83842  -0.82421  -0.80935  -0.77153
 Alpha  occ. eigenvalues --   -0.75571  -0.73274  -0.70652  -0.69320  -0.68729
 Alpha  occ. eigenvalues --   -0.65289  -0.62921  -0.62680  -0.60466  -0.59308
 Alpha  occ. eigenvalues --   -0.58336  -0.57706  -0.56649  -0.56092  -0.55977
 Alpha  occ. eigenvalues --   -0.55136  -0.54937  -0.53818  -0.53249  -0.52825
 Alpha  occ. eigenvalues --   -0.51565  -0.51111  -0.50931  -0.50446  -0.50238
 Alpha  occ. eigenvalues --   -0.49845  -0.49305  -0.48683  -0.48321  -0.47805
 Alpha  occ. eigenvalues --   -0.46887  -0.46080  -0.45233  -0.44718  -0.44278
 Alpha  occ. eigenvalues --   -0.43652  -0.43058  -0.42891  -0.40490  -0.39778
 Alpha  occ. eigenvalues --   -0.39380  -0.38251  -0.37964  -0.36494  -0.35413
 Alpha  occ. eigenvalues --   -0.35289  -0.34878  -0.32100  -0.31379  -0.29086
 Alpha virt. eigenvalues --   -0.00166   0.03977   0.04780   0.05415   0.05651
 Alpha virt. eigenvalues --    0.05863   0.06350   0.07091   0.07250   0.08173
 Alpha virt. eigenvalues --    0.08302   0.08794   0.09173   0.09452   0.09767
 Alpha virt. eigenvalues --    0.09942   0.10556   0.10998   0.11177   0.11745
 Alpha virt. eigenvalues --    0.12136   0.12535   0.12774   0.13092   0.13492
 Alpha virt. eigenvalues --    0.13598   0.13841   0.14351   0.14870   0.15114
 Alpha virt. eigenvalues --    0.15196   0.15654   0.16125   0.16212   0.16292
 Alpha virt. eigenvalues --    0.16845   0.17272   0.17552   0.17801   0.18179
 Alpha virt. eigenvalues --    0.18830   0.19228   0.19530   0.19752   0.19985
 Alpha virt. eigenvalues --    0.20456   0.20675   0.20957   0.21068   0.21377
 Alpha virt. eigenvalues --    0.21515   0.22147   0.22987   0.23111   0.23399
 Alpha virt. eigenvalues --    0.23566   0.24006   0.24292   0.24718   0.25150
 Alpha virt. eigenvalues --    0.25371   0.25580   0.25795   0.26045   0.26098
[...]
 75,0.00000251,0.00000302,0.00001293,-0.00005213,-0.00004892,-0.0009901
 7,-0.00450490,-0.00197917,0.01204795,-0.00000400,0.00001752,-0.0000053
 7,0.00000698,-0.00008335,0.00000267,-0.00001523,0.00002002,-0.00000995
 ,-0.00001397,-0.00001381,0.00000803,0.00000774,0.00002513,-0.00000850,
 0.00000381,-0.00000245,-0.00000791,0.00000644,-0.00002023,0.00000379,0
 .00000282,0.00000395,0.00000429,-0.00000568,0.00000967,0.00000967,-0.0
 0034957,-0.00005870,0.00025753,0.00020005,0.00005355,0.00011837,0.0005
 8034,0.00036023,0.00112643,-0.00014177,-0.00001627,-0.00015665,0.00072
 288,0.00016035,-0.00016279,-0.00700058,-0.00118974,0.00117581,0.002621
 89,0.00000401,-0.00168771,0.01474260,0.00642571,0.02524236,-0.00011359
 ,0.00000007,-0.00011896,0.00006039,0.00000672,0.00004125,0.00001291,-0
 .00001911,0.00010643,-0.15046571,-0.02366671,-0.07904611,-0.00777277,-
 0.00102467,-0.01110570,-0.01268943,-0.00827015,-0.01794612,-0.00002101
 ,0.00000218,-0.00002657,-0.00000062,-0.00000101,0.00000628,0.00000455,
 -0.00000051,0.00000312,0.00000400,0.00000061,0.00000300,-0.00026035,0.
 00000277,0.00038422,0.00001423,-0.00000531,0.00005429,0.00009169,-0.00
 007207,-0.00003813,-0.00000776,0.00002717,0.00006281,-0.00000184,-0.00
 000341,-0.00001099,-0.00004171,0.00000146,-0.00004411,0.00000668,0.000
 00281,0.00000873,-0.00000073,-0.00000097,0.00000558,-0.00000287,-0.000
 00192,0.00000642,-0.00000657,0.,-0.00000189,-0.00000589,0.00000861,-0.
 00003106,0.00000869,0.00000624,0.00000214,0.00001768,0.00001532,-0.000
 00294,0.56191488,-0.00000216,-0.00000519,0.00000718,-0.00000689,0.0000
 0425,-0.00000499,0.00000695,0.00000148,0.00000321,-0.00000676,-0.00000
 041,-0.00000017,-0.00000332,0.00000035,0.00000131,-0.00000305,0.000005
 60,0.00000555,0.00000098,0.00000555,-0.00000652,-0.00000124,0.00000044
 ,0.00000003,0.00000229,-0.00000421,-0.00000534,-0.00000380,0.00000143,
 -0.00000356,0.00000119,-0.00000629,0.00000349,-0.00006563,-0.00003573,
 0.00005231,-0.00000304,0.00002253,-0.00000680,0.00011717,-0.00004634,0
 .00001934,-0.00021845,-0.00002446,-0.00014927,-0.00006004,0.00108034,-
 0.00033207,-0.00053798,0.00112027,-0.00291990,0.00000469,0.00000592,-0
 .00000488,-0.00000554,-0.00000383,0.00000093,-0.00000298,-0.00000461,0
 .00000315,-0.02129753,-0.09634343,-0.02271321,-0.01855470,-0.00374383,
 -0.02391968,0.01363087,0.00779359,0.01831751,0.00000089,0.00000131,0.0
 0000142,0.,0.00000048,0.00000030,0.00000087,0.00000015,-0.00000024,-0.
 00000043,-0.00000079,0.,-0.00004153,-0.00001632,0.00004235,-0.00000117
 ,0.00001268,0.00000502,-0.00002053,0.00023489,-0.00005728,0.00006939,-
 0.00002219,-0.00014808,-0.00009276,-0.00005835,0.00019644,0.00000839,-
 0.00008184,-0.00000939,-0.00000154,-0.00000208,-0.00000171,0.00000150,
 -0.00000035,0.00000358,-0.00000075,-0.00000050,-0.00000162,-0.00000171
 ,0.00000294,0.00000054,0.00000328,-0.00000451,-0.00000305,0.00000443,-
 0.00000534,-0.00000406,0.00000838,0.00000294,-0.00000082,-0.01167699,0
 .58612118,0.00000680,-0.00002516,0.00000115,-0.00001130,0.00008640,-0.
 00002622,0.00005210,-0.00004730,0.00000307,0.00003212,0.00002433,-0.00
 000194,-0.00001138,-0.00002286,0.00000549,-0.00000388,0.00001088,-0.00
 000166,-0.00001215,0.00001315,0.00000806,-0.00000232,-0.00000405,-0.00
 000222,0.00000304,-0.00000434,-0.00000135,0.00033325,0.00006379,-0.000
 24366,-0.00021327,-0.00007124,-0.00012898,-0.00101436,-0.00043892,-0.0
 0106755,0.00011955,0.00000960,0.00013785,-0.00016157,0.00000210,0.0002
 6939,0.00685651,0.00106692,-0.00202334,-0.00209364,-0.00034225,0.00136
 558,-0.01814861,-0.01088110,-0.04554776,0.00012879,-0.00000042,0.00014
 660,-0.00007712,-0.00000819,-0.00005216,-0.00001775,0.00002164,-0.0001
 2590,-0.06445725,-0.02008245,-0.14250113,0.00173684,0.00035563,0.00499
 029,-0.00342397,-0.00109502,-0.00174968,0.00002698,-0.00000284,0.00003
 753,0.00000143,0.00000136,-0.00000736,-0.00000576,0.00000124,-0.000003
 42,-0.00000484,-0.00000138,-0.00000348,0.00004350,-0.00002535,-0.00030
 649,-0.00000872,0.00000421,0.00000563,-0.00006764,-0.00004701,-0.00002
 630,-0.00011666,0.00012203,0.00015515,-0.00004951,-0.00008638,0.000121
 12,0.00002745,0.00000759,-0.00006866,-0.00000765,0.00000059,-0.0000088
 3,0.00000087,0.00000231,-0.00000630,0.00000170,0.00000018,-0.00000620,
 0.00000249,-0.00000039,0.00000348,0.00000646,-0.00000708,0.00001620,-0
 .00003653,0.00001037,0.00000019,-0.00003700,-0.00002435,0.00000400,-0.
 04017554,-0.01410126,0.54670974,-0.00000111,0.00000053,0.00000898,0.00
 000517,0.00001629,0.00000569,-0.00000093,-0.00000108,0.00000029,-0.000
 01200,-0.00000346,0.00000073,0.00000385,-0.00000184,0.00000014,0.00000
 124,-0.00000401,0.00000129,0.00000203,0.00000127,-0.00000558,0.0000003
 5,0.00000086,-0.00000043,-0.00000076,-0.00000161,-0.00000201,0.0001016
 7,0.00000637,-0.00009388,-0.00000853,-0.00000566,-0.00000183,-0.000205
 32,-0.00010664,-0.00032692,-0.00002634,0.00000178,-0.00001608,-0.00027
 101,-0.00006418,-0.00002802,0.00164697,0.00010253,-0.00074066,-0.00027
 317,0.00003183,0.00032147,-0.00252223,-0.00158114,-0.00593841,-0.00000
 285,0.00000403,-0.00003870,0.00001020,0.00000174,0.00001032,-0.0000014
 8,-0.00000223,0.00001720,0.01219010,-0.00008440,-0.01674881,0.00063707
 ,-0.00017070,0.00081708,0.00049134,0.00063629,0.00067513,-0.00000404,0
 .00000064,-0.00001095,-0.00000119,-0.00000046,0.00000073,0.00000104,-0
 .00000025,0.00000028,0.00000106,0.00000063,0.00000046,0.00012341,0.000
 01300,0.00002673,-0.00000024,-0.00000200,-0.00003574,0.00005055,0.0000
 5082,0.00001547,0.00005329,-0.00012067,-0.00010201,0.00001880,0.000083
 12,-0.00009823,-0.00000336,0.00000063,0.00005300,0.00000183,-0.0000005
 1,0.00000325,0.00000016,-0.00000061,-0.00000015,0.00000100,0.00000086,
 0.00000121,0.00000300,-0.00000031,-0.00000241,0.00000355,0.00000285,0.
 00001401,0.00000151,0.00000008,0.00000131,0.00000812,0.00000513,-0.000
 00017,-0.11746695,0.00617681,0.11739392,0.12345298,-0.00000017,-0.0000
 0196,-0.00000139,0.00000082,0.00000857,-0.00000267,-0.00000212,-0.0000
 0247,-0.00000084,0.00001327,0.00000889,0.00000081,-0.00000185,-0.00000
 500,0.00000217,-0.00000065,0.00000131,0.00000094,-0.00000253,0.0000016
 7,0.00000199,-0.00000020,-0.00000178,-0.00000241,0.00000105,-0.0000005
 6,-0.00000100,0.00004340,-0.00000810,-0.00002279,-0.00002372,-0.000007
 28,-0.00001444,-0.00004164,-0.00008287,-0.00011601,0.00002106,-0.00000
 051,0.00002329,-0.00010476,0.00000699,0.00002132,0.00058096,0.00066154
 ,-0.00004847,-0.00018264,-0.00016753,0.00007919,-0.00139888,0.00031128
 ,-0.00226056,0.00001441,0.00000038,0.00001861,-0.00000812,-0.00000337,
 -0.00000575,-0.00000129,0.00000210,-0.00001469,0.00518839,-0.00203393,
 -0.00536775,0.00013566,-0.00019380,0.00021628,0.00004991,0.00015691,0.
 00022703,0.00000250,0.00000086,0.00000438,0.00000015,0.00000026,-0.000
 00086,-0.00000044,0.,-0.00000043,-0.00000059,-0.00000035,-0.00000040,0
 .00003807,0.00000719,-0.00006002,-0.00000256,0.00000198,-0.00000761,0.
 00001629,-0.00010787,0.00002675,-0.00003628,0.00000124,0.00004237,0.00
 003022,0.00003520,-0.00007172,0.00000165,0.00003258,-0.00000018,-0.000
 00052,-0.00000016,-0.00000118,-0.00000016,0.00000013,-0.00000064,0.000
 00030,0.00000025,-0.00000095,0.00000079,-0.00000011,0.00000054,0.00000
 144,-0.00000046,0.00000873,-0.00000003,-0.00000145,-0.00000016,-0.0000
 1066,-0.00000719,0.00000159,0.00580005,-0.04910021,-0.01122483,-0.0063
 6371,0.04811167,-0.00000348,-0.00001392,-0.00000561,-0.00000788,0.0000
 4637,-0.00000372,0.00002142,-0.00002382,0.00000349,0.00005184,0.000037
 88,0.00000074,-0.00001118,-0.00001869,0.00000282,-0.00000776,0.0000083
 1,-0.00000116,-0.00000996,0.00001340,0.00000849,-0.00000140,-0.0000049
 6,-0.00000159,0.00000402,-0.00000493,-0.00000070,0.00015123,0.00005746
 ,-0.00007427,-0.00016147,-0.00004060,-0.00009677,-0.00009652,-0.000114
 32,-0.00042207,0.00016114,0.00001642,0.00016937,-0.00034152,-0.0000551
 5,0.00020360,0.00241984,0.00057400,0.00105918,-0.00100927,-0.00016828,
 -0.00001575,-0.00490335,-0.00211359,-0.00657531,0.00010680,-0.00000847
 ,0.00018102,-0.00007105,-0.00000535,-0.00005852,-0.00000936,0.00002371
 ,-0.00013394,0.01653138,0.00060903,-0.01699974,-0.00001761,-0.00056637
 ,0.00059649,-0.00025494,0.00069968,0.00038457,0.00002849,-0.00000363,0
 .00004649,0.00000269,0.00000166,-0.00000756,-0.00000628,0.00000127,-0.
 00000334,-0.00000547,-0.00000186,-0.00000364,0.00011214,-0.00001908,-0
 .00038789,-0.00001304,0.00000407,-0.00001043,-0.00002579,0.00002789,0.
 00000594,-0.00004918,0.00001621,0.00000549,-0.00003888,-0.00002784,0.0
 0003171,0.00004101,-0.00000347,-0.00003416,-0.00000540,-0.00000114,-0.
 00001131,0.00000022,0.00000264,-0.00000372,0.00000176,-0.00000049,-0.0
 0000645,0.00000189,0.00000003,0.00000484,0.00000829,-0.00001130,0.0000
 2752,-0.00001365,-0.00000207,-0.00000503,-0.00004248,-0.00002998,0.000
 00257,0.11499289,-0.01164964,-0.25220256,-0.12667193,0.01317962,0.2738
 8768,-0.00000339,-0.00000013,-0.00000373,-0.00000601,0.00000654,0.0000
 0008,-0.00000016,-0.00000077,0.00000249,0.00001387,0.00001261,0.000000
 91,-0.00000285,-0.00000281,-0.00000084,-0.00000492,0.00000250,-0.00000
 031,-0.00000085,0.00000395,0.00000272,-0.00000082,-0.00000122,0.000001
 21,0.00000229,-0.00000197,0.00000007,0.00001968,0.00000213,0.00000280,
 -0.00004944,-0.00000951,-0.00002809,0.00012288,-0.00001974,-0.00008325
 ,0.00006921,0.00000521,0.00006539,-0.00008412,-0.00003123,0.00004962,-
 0.00046024,0.00001330,0.00026937,0.00020365,0.00017313,-0.00045307,0.0
 0126072,0.00142463,0.00076942,0.00003008,-0.00001134,0.00007728,-0.000
 02311,0.00000606,-0.00002535,0.00000019,0.00001322,-0.00005626,-0.0107
 5416,-0.02173282,0.00579405,-0.00172515,-0.00025059,-0.00398849,0.0002
 1937,0.00021314,0.00071838,0.00001189,-0.00000401,0.00001892,0.0000013
 1,0.00000041,-0.00000316,-0.00000352,0.00000037,-0.00000143,-0.0000023
 1,0.00000001,-0.00000134,0.00002024,-0.00000100,-0.00016006,-0.0000020
 8,-0.00000113,0.00000384,-0.00002696,-0.00000626,-0.00004022,0.0000114
 9,0.00008056,-0.00000813,0.00006668,-0.00007382,0.00004908,0.00001333,
 0.00000515,-0.00001583,-0.00000134,-0.00000167,-0.00000464,0.00000052,
 0.00000087,-0.00000359,0.00000084,0.00000017,-0.00000267,0.00000041,-0
 .00000057,0.00000184,0.00000086,-0.00001030,0.00001254,0.00000242,-0.0
 0000640,-0.00000298,-0.00000864,-0.00000719,-0.00000125,-0.09885698,-0
 .10028518,0.01893186,-0.00712425,-0.01413514,0.00149866,0.10519348,-0.
 00000777,0.00000737,-0.00000384,0.00001293,-0.00001276,0.00001194,-0.0
 0001811,0.00001078,0.00000272,-0.00000484,0.00000093,0.00000065,0.0000
 0736,0.00000894,-0.00000549,-0.00000336,-0.00000232,-0.00000575,0.0000
 0310,-0.00000398,0.00000116,0.00000077,0.00000186,0.00000438,-0.000001
 48,0.00000075,0.00000532,0.00002348,-0.00001871,-0.00002382,0.00002486
 ,0.00001066,0.00002228,0.00017606,0.00002054,-0.00008627,-0.00002768,-
 0.00000562,-0.00001086,-0.00033834,-0.00005590,-0.00005381,-0.00040809
 ,-0.00000772,0.00011336,0.00047605,0.00008569,-0.00018062,0.00064544,0
 .00057223,-0.00018170,-0.00003983,-0.00001001,-0.00001339,0.00003157,0
 .00001150,0.00000107,0.00001079,0.00000428,-0.00000145,-0.00316259,-0.
 00656802,0.00187274,-0.00089610,0.00139159,-0.00102520,0.00007682,0.00
 088609,-0.00045356,-0.00000292,-0.00000175,-0.00000255,0.00000034,-0.0
 0000027,-0.00000044,-0.00000042,-0.00000054,0.00000064,0.00000016,0.00
 000086,0.00000080,0.00015244,0.00002402,0.00000094,-0.00000568,-0.0000
 0688,-0.00004068,0.00006335,-0.00005144,0.00010641,0.00000599,-0.00016
 878,-0.00004077,0.00005562,0.00014427,-0.00021845,-0.00000438,0.000035
 94,0.00004841,0.00000005,-0.00000047,0.00000189,-0.00000045,-0.0000000
 2,-0.00000160,0.00000183,0.00000060,0.00000133,0.00000592,-0.00000185,
 -0.00000137,0.00000295,0.00000256,0.00002057,0.00001284,-0.00000533,0.
 00000042,0.00000966,0.00000613,-0.00000297,-0.10136311,-0.26336522,0.0
 4158774,0.00217930,0.00315123,-0.00039654,0.11301200,0.28258127,-0.000
 00329,0.00001006,0.00000119,0.00001034,-0.00001538,0.00001399,-0.00002
 057,0.00001692,0.00000145,-0.00001555,-0.00000787,-0.00000061,0.000006
 19,0.00000809,-0.00000100,0.00000184,-0.00000579,0.00000252,0.00000500
 ,-0.00000568,-0.00000436,0.00000081,0.00000142,-0.00000027,-0.00000092
 ,0.00000110,-0.00000039,-0.00002803,-0.00001587,-0.00000077,0.00006280
 ,0.00001358,0.00004386,0.00005922,0.00002071,0.00010905,-0.00006573,-0
 .00000781,-0.00006765,-0.00003634,0.00000832,-0.00012060,-0.00124540,-
 0.00023012,-0.00048658,0.00068622,0.00023230,-0.00044685,0.00049699,0.
 00058087,0.00313171,-0.00004725,0.00000282,-0.00007897,0.00003492,0.00
 000487,0.00002403,0.00000454,-0.00000832,0.00005310,-0.01206391,-0.026
 11780,0.00383495,-0.00309949,-0.00088381,-0.00373987,0.00090163,0.0005
 4888,0.00091447,-0.00001142,0.00000128,-0.00002059,-0.00000132,-0.0000
 0073,0.00000298,0.00000247,-0.00000063,0.00000134,0.00000228,0.0000009
 7,0.00000159,0.00004017,0.00002342,0.00013550,0.00000677,-0.00000319,-
 0.00001922,0.00004969,-0.00010029,-0.00000471,0.00002755,-0.00003263,0
 .00000140,0.00009855,0.00008008,-0.00010191,-0.00002524,0.00003676,0.0
 0005776,0.00000448,0.00000043,0.00000621,0.00000014,-0.00000128,0.0000
 0073,-0.00000002,0.00000072,0.00000296,0.00000103,-0.00000012,-0.00000
 300,0.00000199,0.00000193,0.00000656,0.00001301,-0.00000587,0.,0.00001
 588,0.00001037,-0.00000093,0.02075380,0.04298006,-0.05728128,0.0111370
 4,0.02672568,-0.00360466,-0.01884905,-0.04510808,0.05906474,0.00000182
 ,-0.00000006,0.00000509,0.00000581,0.00002162,0.00000769,-0.00004121,0
 .00002155,-0.00000277,0.00001474,0.00000662,-0.00000108,-0.00000453,-0
 .00001351,0.00000623,0.00000184,-0.00000529,0.00000897,-0.00000049,0.0
 0000897,-0.00000511,-0.00000106,-0.00000389,-0.00000492,0.00000507,-0.
 00000554,-0.00000784,0.00002245,0.00003933,-0.00001053,-0.00003914,-0.
 00001792,-0.00002537,0.00016407,0.00002686,-0.00011973,0.00005494,0.00
 001161,0.00005826,-0.00019543,-0.00003461,0.00003129,-0.00045620,-0.00
 008450,0.00035278,0.00037303,-0.00019797,-0.00039148,0.00176204,-0.000
 73572,0.00080511,0.00001910,0.00000126,0.00005862,-0.00001208,-0.00000
 827,-0.00001940,0.00000186,0.00000652,-0.00004355,-0.01742003,0.017091
 27,-0.00019974,0.00030900,-0.00021095,0.00058096,-0.00135459,-0.001997
 36,-0.00354030,0.00000715,0.00000110,0.00001546,0.00000117,0.00000079,
 -0.00000251,-0.00000157,-0.00000023,-0.00000077,-0.00000216,-0.0000009
 2,-0.00000110,0.00006924,-0.00000917,-0.00014981,-0.00000505,0.0000047
 4,-0.00000996,-0.00001068,0.00002109,-0.00000701,0.00006865,0.00004730
 ,-0.00004561,0.00001571,-0.00002079,-0.00000344,0.00001489,-0.00001002
 ,0.00000299,-0.00000219,-0.00000147,-0.00000465,0.,0.00000062,-0.00000
 046,0.00000020,0.00000007,-0.00000296,0.00000171,0.00000087,0.00000201
 ,0.00000541,-0.00000291,0.00001881,0.00002677,-0.00001924,-0.00000157,
 -0.00000701,-0.00000914,0.00000152,-0.18578567,0.13285761,-0.01554723,
 -0.01088453,0.01037830,-0.00235686,0.01187589,-0.01070652,0.00108818,0
 .20140105,0.00000470,-0.00000168,-0.00000108,-0.00001072,0.00000358,-0
 .00000622,0.00001947,-0.00001131,-0.00000166,0.00000468,0.00000320,0.0
 0000094,-0.00000388,-0.00000300,0.00000127,0.00000142,0.00000127,0.000
 00149,-0.00000216,-0.00000068,0.00000241,-0.00000004,-0.00000072,-0.00
 000141,0.00000008,0.00000153,-0.00000043,-0.00002235,0.00000096,0.0000
 2511,-0.00002328,-0.00000050,-0.00001487,-0.00010100,0.00001563,0.0000
 6962,0.00003101,-0.00000849,0.00001376,0.00025762,0.00007683,0.0000246
 3,-0.00016137,-0.00005955,-0.00015660,-0.00011471,-0.00013812,-0.00008
 640,-0.00002235,0.00028397,0.00133699,0.00003055,-0.00000018,0.0000217
 1,-0.00002491,-0.00000153,-0.00000497,-0.00000702,0.00000173,-0.000007
 63,-0.00745876,0.00727853,-0.00119948,0.00001421,0.00086055,0.00069406
 ,-0.00114353,0.00071372,-0.00192932,0.00000438,-0.00000156,0.00000383,
 -0.00000008,-0.00000019,-0.00000025,-0.00000099,0.00000055,-0.00000077
 ,-0.00000025,0.00000006,-0.00000075,-0.00011697,-0.00001346,-0.0000247
 3,0.00000659,-0.00000162,0.00003311,-0.00003883,-0.00010416,-0.0000901
 1,-0.00003318,0.00018588,0.00014478,0.00004392,-0.00011951,0.00007904,
 -0.00000366,0.00001613,-0.00003486,0.00000179,0.00000105,-0.00000077,-
 0.00000014,-0.00000004,-0.00000146,-0.00000067,-0.00000011,-0.00000073
 ,-0.00000432,-0.00000044,0.00000078,-0.00000398,-0.00000546,-0.0000125
 5,-0.00001389,0.00000602,-0.00000008,-0.00000840,-0.00000433,0.0000013
 1,0.13453633,-0.18354227,0.01515210,-0.00080196,-0.00077531,-0.0000341
 5,0.02161880,-0.01867253,0.00123965,-0.14645210,0.19401554,-0.00000239
 ,0.00001047,0.00001047,0.00001247,-0.00000777,0.00001553,-0.00003827,0
 .00002696,-0.00000289,-0.00002423,-0.00001535,-0.00000050,0.00000743,0
 .00000347,-0.00000043,0.00000551,-0.00001242,0.00000524,0.00000831,-0.
 00000181,-0.00001110,0.00000129,0.00000188,0.00000007,-0.00000084,-0.0
 0000128,-0.00000296,-0.00001950,-0.00000772,-0.00000281,0.00007208,0.0
 0001000,0.00004700,0.00010476,0.00003823,0.00008026,-0.00007974,0.0000
 0267,-0.00007087,-0.00012952,-0.00007200,-0.00012160,-0.00123254,-0.00
 041095,-0.00039699,0.00082942,-0.00007101,-0.00039163,0.00061365,0.000
 51186,0.00289461,-0.00005476,0.00000402,-0.00008534,0.00004210,0.00000
 257,0.00002571,0.00000650,-0.00000908,0.00005517,-0.02008305,0.0200109
 5,-0.00332353,0.00104578,-0.00018592,0.00085202,-0.00290081,-0.0017676
 9,-0.00343998,-0.00001262,0.00000218,-0.00002111,-0.00000124,-0.000000
 68,0.00000297,0.00000285,-0.00000082,0.00000165,0.00000230,0.00000079,
 0.00000175,0.00009307,0.00001313,0.00014326,0.00000409,-0.00000161,-0.
 00003174,0.00004522,0.00015160,-0.00002898,0.00014944,-0.00013007,-0.0
 0016462,-0.00000013,0.00006039,-0.00002435,-0.00001560,-0.00003109,0.0
 0008040,0.00000398,0.00000053,0.00000708,0.00000006,-0.00000129,0.0000
 0224,-0.00000003,0.00000053,0.00000328,0.00000254,0.00000027,-0.000003
 10,0.00000345,0.00000713,0.00001565,0.00002543,-0.00001096,0.00000088,
 0.00002428,0.00001448,-0.00000128,-0.01379292,0.01439983,-0.05058609,0
 .02035720,-0.02135353,0.00404790,-0.00453680,0.00405446,-0.00142786,0.
 01946179,-0.01523535,0.05184662\\0.00000013,0.00000001,-0.00000002,0.0
 0000011,0.,-0.00000023,0.00000011,-0.00000004,-0.00000050,0.00000015,-
 0.00000003,-0.00000055,0.00000017,-0.00000002,-0.00000036,0.00000016,0
 .00000001,-0.00000009,0.00000013,0.00000004,0.00000018,0.00000019,-0.0
 0000002,-0.00000041,0.00000018,0.00000003,0.00000007,0.00000009,0.,-0.
 00000013,0.00000032,0.00000005,0.00000003,-0.00000019,-0.00000003,0.00
 000004,0.00000031,0.00000008,0.00000029,-0.00000016,0.,0.00000031,-0.0
 0000042,-0.00000006,-0.00000012,-0.00000043,-0.00000011,-0.00000037,-0
 .00000066,-0.00000009,0.00000003,0.00000057,0.00000006,-0.00000014,0.0
 0000056,0.00000005,-0.00000039,0.00000077,0.00000011,0.,-0.00000089,-0
 .00000013,-0.00000014,-0.00000090,-0.00000016,-0.00000025,-0.00000089,
 -0.00000016,-0.00000026,0.00000101,0.00000013,-0.00000017,0.00000117,0
 .00000017,-0.00000003,0.00000097,0.00000011,-0.00000030,0.00000107,0.0
 0000012,-0.00000029,0.00000008,0.00000006,0.00000043,0.00000008,0.0000
 0008,0.00000063,-0.00000041,0.,0.00000050,-0.00000054,-0.00000003,0.00
 000047,-0.00000052,-0.00000002,0.00000048,-0.00000033,0.00000003,0.000
 00071,0.00000054,0.00000013,0.00000048,0.00000062,0.00000014,0.0000004
 6,0.00000072,0.00000015,0.00000045,0.00000048,0.00000015,0.00000069,0.
 00000007,-0.00000002,-0.00000031,0.00000010,-0.00000007,-0.00000075,0.
 00000016,-0.00000008,-0.00000089,-0.00000112,-0.00000016,0.00000007,-0
 .00000131,-0.00000019,-0.00000003,-0.00000111,-0.00000014,0.00000020,-
 0.00000113,-0.00000014,0.00000021\\\@
 The archive entry for this job was punched.


 RESEARCH IS WHAT I AM DOING WHEN I DON'T KNOW WHAT I AM DOING.
     -- WERNER VON BRAUN
 Job cpu time:       2 days 12 hours 40 minutes 37.3 seconds.
 Elapsed time:       0 days  3 hours 47 minutes 34.8 seconds.
 File lengths (MBytes):  RWF=   1361 Int=      0 D2E=      0 Chk=     25 Scr=      1
 Normal termination of Gaussian 16 at Tue Mar  3 23:50:59 2026.
