 Entering Gaussian System, Link 0=g16
 Input=Felodipine_DFT_B3LYP_6311_OptFreq_Raman_Hirshfeld.gjf
 Output=Felodipine_DFT_B3LYP_6311_OptFreq_Raman_Hirshfeld.log
 Initial command:
 /Apps/Gaussian/G16//g16/l1.exe "/CompChemNFS/GaussianScratch/Gau-1203278.inp" -scrdir="/CompChemNFS/GaussianScratch/"
 Entering Link 1 = /Apps/Gaussian/G16//g16/l1.exe PID=   1203280.
  
 Copyright (c) 1988,1990,1992,1993,1995,1998,2003,2009,2016,
            Gaussian, Inc.  All Rights Reserved.
  
 This is part of the Gaussian(R) 16 program.  It is based on
 the Gaussian(R) 09 system (copyright 2009, Gaussian, Inc.),
 the Gaussian(R) 03 system (copyright 2003, Gaussian, Inc.),
 the Gaussian(R) 98 system (copyright 1998, Gaussian, Inc.),
 the Gaussian(R) 94 system (copyright 1995, Gaussian, Inc.),
 the Gaussian 92(TM) system (copyright 1992, Gaussian, Inc.),
 the Gaussian 90(TM) system (copyright 1990, Gaussian, Inc.),
 the Gaussian 88(TM) system (copyright 1988, Gaussian, Inc.),
 the Gaussian 86(TM) system (copyright 1986, Carnegie Mellon
 University), and the Gaussian 82(TM) system (copyright 1983,
 Carnegie Mellon University). Gaussian is a federally registered
 trademark of Gaussian, Inc.
  
 This software contains proprietary and confidential information,
 including trade secrets, belonging to Gaussian, Inc.
  
 This software is provided under written license and may be
 used, copied, transmitted, or stored only in accord with that
 written license.
  
 The following legend is applicable only to US Government
 contracts under FAR:
  
                    RESTRICTED RIGHTS LEGEND
  
 Use, reproduction and disclosure by the US Government is
 subject to restrictions as set forth in subparagraphs (a)
 and (c) of the Commercial Computer Software - Restricted
 Rights clause in FAR 52.227-19.
  
 Gaussian, Inc.
 340 Quinnipiac St., Bldg. 40, Wallingford CT 06492
  
  
 ---------------------------------------------------------------
 Warning -- This program may not be used in any manner that
 competes with the business of Gaussian, Inc. or will provide
 assistance to any competitor of Gaussian, Inc.  The licensee
 of this program is prohibited from giving any competitor of
 Gaussian, Inc. access to this program.  By using this program,
 the user acknowledges that Gaussian, Inc. is engaged in the
 business of creating and licensing software in the field of
 computational chemistry and represents and warrants to the
 licensee that it is not a competitor of Gaussian, Inc. and that
 it will not use this program in any manner prohibited above.
 ---------------------------------------------------------------
  

 Cite this work as:
 Gaussian 16, Revision A.03,
 M. J. Frisch, G. W. Trucks, H. B. Schlegel, G. E. Scuseria, 
 M. A. Robb, J. R. Cheeseman, G. Scalmani, V. Barone, 
 G. A. Petersson, H. Nakatsuji, X. Li, M. Caricato, A. V. Marenich, 
 J. Bloino, B. G. Janesko, R. Gomperts, B. Mennucci, H. P. Hratchian, 
 J. V. Ortiz, A. F. Izmaylov, J. L. Sonnenberg, D. Williams-Young, 
 F. Ding, F. Lipparini, F. Egidi, J. Goings, B. Peng, A. Petrone, 
 T. Henderson, D. Ranasinghe, V. G. Zakrzewski, J. Gao, N. Rega, 
 G. Zheng, W. Liang, M. Hada, M. Ehara, K. Toyota, R. Fukuda, 
 J. Hasegawa, M. Ishida, T. Nakajima, Y. Honda, O. Kitao, H. Nakai, 
 T. Vreven, K. Throssell, J. A. Montgomery, Jr., J. E. Peralta, 
 F. Ogliaro, M. J. Bearpark, J. J. Heyd, E. N. Brothers, K. N. Kudin, 
 V. N. Staroverov, T. A. Keith, R. Kobayashi, J. Normand, 
 K. Raghavachari, A. P. Rendell, J. C. Burant, S. S. Iyengar, 
 J. Tomasi, M. Cossi, J. M. Millam, M. Klene, C. Adamo, R. Cammi, 
 J. W. Ochterski, R. L. Martin, K. Morokuma, O. Farkas, 
 J. B. Foresman, and D. J. Fox, Gaussian, Inc., Wallingford CT, 2016.
 
 ******************************************
 Gaussian 16:  ES64L-G16RevA.03 25-Dec-2016
                 4-Jun-2025 
 ******************************************
 %nprocshared=16
 Will use up to   16 processors via shared memory.
 %mem=16GB
 %chk=Felodipine_DFT_B3LYP_6311_OptFreq_Raman_Hirshfeld.chk
 ----------------------------------------------------------------------
 #p opt freq=raman b3lyp/6-311g guess=save pop=hirshfeld geom=connectiv
 ity
 ----------------------------------------------------------------------
 1/18=20,19=15,26=3,38=1,57=2/1,3;
 2/9=110,12=2,17=6,18=5,40=1/2;
 3/5=4,6=6,11=2,25=1,30=1,71=1,74=-5/1,2,3;
 4//1;
 5/5=2,38=5/2;
 6/7=2,8=2,9=2,10=2,28=1,79=1/1;
 7//1,2,3,16;
 1/18=20,19=15,26=3/3(2);
 2/9=110/2;
 99//99;
 2/9=110/2;
 3/5=4,6=6,11=2,25=1,30=1,71=1,74=-5/1,2,3;
 4/5=5,16=3,69=1/1;
 5/5=2,38=5/2;
 7//1,2,3,16;
 1/18=20,19=15,26=3/3(-5);
 2/9=110/2;
 6/7=2,8=2,9=2,10=2,19=2,28=1,79=1/1;
 99/9=1/99;
 Leave Link    1 at Wed Jun  4 15:51:43 2025, MaxMem=  2147483648 cpu:               0.3 elap:               0.0
 (Enter /Apps/Gaussian/G16//g16/l101.exe)
 ----------
 Felodipine
 ----------
 Symbolic Z-matrix:
 Charge =  0 Multiplicity = 1
 C                    -0.69472   0.53234   0.07526 
 C                     0.59003   0.0877   -0.26479 
 C                     1.53938   0.99565  -0.75296 
 C                     1.20397   2.34824  -0.90107 
 C                    -0.08079   2.79287  -0.56102 
 C                    -1.03013   1.88493  -0.07286 
 H                    -1.41956  -0.1609    0.44798 
 H                    -0.33688   3.8256   -0.67412 
 H                    -2.01106   2.22442   0.18678 
 C                     0.95861  -1.39865  -0.10203 
 C                     1.98554  -1.80327  -1.1664 
 C                     1.49887  -1.65275   1.31031 
 C                     2.9725   -2.6908   -0.89221 
 C                     2.49575  -2.54335   1.53402 
 C                     0.87964  -0.89765   2.5011 
 O                    -0.05305  -0.07516   2.30826 
 O                     1.36451  -1.13113   3.82598 
 C                     1.87848  -1.20658  -2.58206 
 O                     0.96103  -0.38881  -2.85245 
 O                     2.82161  -1.5818   -3.58934 
 C                     0.30357  -0.9319    4.76385 
 H                    -0.05592   0.07302   4.68754 
 H                    -0.49361  -1.61303   4.55059 
 C                     2.99785  -0.49756  -4.50491 
 H                     3.70356  -0.77832  -5.25861 
 H                     2.06037  -0.2624   -4.96395 
 H                     3.36151   0.35931  -3.97725 
 N                     3.44855  -2.94982   0.48151 
 H                     4.27915  -2.4084    0.61182 
 C                     2.65738  -3.1354    2.94645 
 H                     2.31354  -2.4275    3.6714 
 H                     2.0818   -4.03402   3.02452 
 H                     3.68908  -3.35603   3.12479 
 C                     3.64114  -3.43966  -2.06 
 H                     2.9334   -3.57031  -2.8518 
 H                     4.47494  -2.87199  -2.41697 
 H                     3.97965  -4.397    -1.72263 
 H                     0.08659  -2.00393  -0.2366 
 Cl                    3.15288   0.43724  -1.18002 
 Cl                    2.39623   3.48851  -1.51416 
 C                     0.82573  -1.18334   6.19064 
 H                     0.03188  -1.03426   6.89241 
 H                     1.18521  -2.18825   6.26695 
 H                     1.6229   -0.50221   6.4039 
 
 ITRead=  0  0  0  0  0  0  0  0  0  0  0  0  0  0  0  0  0  0  0  0
 ITRead=  0  0  0  0  0  0  0  0  0  0  0  0  0  0  0  0  0  0  0  0
 ITRead=  0  0  0  0
 MicOpt= -1 -1 -1 -1 -1 -1 -1 -1 -1 -1 -1 -1 -1 -1 -1 -1 -1 -1 -1 -1
 MicOpt= -1 -1 -1 -1 -1 -1 -1 -1 -1 -1 -1 -1 -1 -1 -1 -1 -1 -1 -1 -1
 MicOpt= -1 -1 -1 -1
 NAtoms=     44 NQM=       44 NQMF=       0 NMMI=      0 NMMIF=      0
                NMic=       0 NMicF=      0.
                    Isotopes and Nuclear Properties:
 (Nuclear quadrupole moments (NQMom) in fm**2, nuclear magnetic moments (NMagM)
  in nuclear magnetons)

  Atom         1           2           3           4           5           6           7           8           9          10
 IAtWgt=          12          12          12          12          12          12           1           1           1          12
 AtmWgt=  12.0000000  12.0000000  12.0000000  12.0000000  12.0000000  12.0000000   1.0078250   1.0078250   1.0078250  12.0000000
 NucSpn=           0           0           0           0           0           0           1           1           1           0
 AtZEff=  -0.0000000  -0.0000000  -0.0000000  -0.0000000  -0.0000000  -0.0000000  -0.0000000  -0.0000000  -0.0000000  -0.0000000
 NQMom=    0.0000000   0.0000000   0.0000000   0.0000000   0.0000000   0.0000000   0.0000000   0.0000000   0.0000000   0.0000000
 NMagM=    0.0000000   0.0000000   0.0000000   0.0000000   0.0000000   0.0000000   2.7928460   2.7928460   2.7928460   0.0000000
 AtZNuc=   6.0000000   6.0000000   6.0000000   6.0000000   6.0000000   6.0000000   1.0000000   1.0000000   1.0000000   6.0000000

  Atom        11          12          13          14          15          16          17          18          19          20
 IAtWgt=          12          12          12          12          12          16          16          12          16          16
 AtmWgt=  12.0000000  12.0000000  12.0000000  12.0000000  12.0000000  15.9949146  15.9949146  12.0000000  15.9949146  15.9949146
 NucSpn=           0           0           0           0           0           0           0           0           0           0
 AtZEff=  -0.0000000  -0.0000000  -0.0000000  -0.0000000  -0.0000000  -0.0000000  -0.0000000  -0.0000000  -0.0000000  -0.0000000
 NQMom=    0.0000000   0.0000000   0.0000000   0.0000000   0.0000000   0.0000000   0.0000000   0.0000000   0.0000000   0.0000000
 NMagM=    0.0000000   0.0000000   0.0000000   0.0000000   0.0000000   0.0000000   0.0000000   0.0000000   0.0000000   0.0000000
 AtZNuc=   6.0000000   6.0000000   6.0000000   6.0000000   6.0000000   8.0000000   8.0000000   6.0000000   8.0000000   8.0000000

  Atom        21          22          23          24          25          26          27          28          29          30
 IAtWgt=          12           1           1          12           1           1           1          14           1          12
 AtmWgt=  12.0000000   1.0078250   1.0078250  12.0000000   1.0078250   1.0078250   1.0078250  14.0030740   1.0078250  12.0000000
 NucSpn=           0           1           1           0           1           1           1           2           1           0
 AtZEff=  -0.0000000  -0.0000000  -0.0000000  -0.0000000  -0.0000000  -0.0000000  -0.0000000  -0.0000000  -0.0000000  -0.0000000
 NQMom=    0.0000000   0.0000000   0.0000000   0.0000000   0.0000000   0.0000000   0.0000000   2.0440000   0.0000000   0.0000000
 NMagM=    0.0000000   2.7928460   2.7928460   0.0000000   2.7928460   2.7928460   2.7928460   0.4037610   2.7928460   0.0000000
 AtZNuc=   6.0000000   1.0000000   1.0000000   6.0000000   1.0000000   1.0000000   1.0000000   7.0000000   1.0000000   6.0000000

  Atom        31          32          33          34          35          36          37          38          39          40
 IAtWgt=           1           1           1          12           1           1           1           1          35          35
 AtmWgt=   1.0078250   1.0078250   1.0078250  12.0000000   1.0078250   1.0078250   1.0078250   1.0078250  34.9688527  34.9688527
 NucSpn=           1           1           1           0           1           1           1           1           3           3
 AtZEff=  -0.0000000  -0.0000000  -0.0000000  -0.0000000  -0.0000000  -0.0000000  -0.0000000  -0.0000000  -0.0000000  -0.0000000
 NQMom=    0.0000000   0.0000000   0.0000000   0.0000000   0.0000000   0.0000000   0.0000000   0.0000000  -8.1650000  -8.1650000
 NMagM=    2.7928460   2.7928460   2.7928460   0.0000000   2.7928460   2.7928460   2.7928460   2.7928460   0.8218740   0.8218740
 AtZNuc=   1.0000000   1.0000000   1.0000000   6.0000000   1.0000000   1.0000000   1.0000000   1.0000000  17.0000000  17.0000000

  Atom        41          42          43          44
 IAtWgt=          12           1           1           1
 AtmWgt=  12.0000000   1.0078250   1.0078250   1.0078250
 NucSpn=           0           1           1           1
 AtZEff=  -0.0000000  -0.0000000  -0.0000000  -0.0000000
 NQMom=    0.0000000   0.0000000   0.0000000   0.0000000
 NMagM=    0.0000000   2.7928460   2.7928460   2.7928460
 AtZNuc=   6.0000000   1.0000000   1.0000000   1.0000000
 Leave Link  101 at Wed Jun  4 15:51:44 2025, MaxMem=  2147483648 cpu:               5.2 elap:               0.3
 (Enter /Apps/Gaussian/G16//g16/l103.exe)

 GradGradGradGradGradGradGradGradGradGradGradGradGradGradGradGradGradGrad
 Berny optimization.
 Initialization pass.
                           ----------------------------
                           !    Initial Parameters    !
                           ! (Angstroms and Degrees)  !
 --------------------------                            --------------------------
 ! Name  Definition              Value          Derivative Info.                !
 --------------------------------------------------------------------------------
 ! R1    R(1,2)                  1.4014         estimate D2E/DX2                !
 ! R2    R(1,6)                  1.4014         estimate D2E/DX2                !
 ! R3    R(1,7)                  1.07           estimate D2E/DX2                !
 ! R4    R(2,3)                  1.4014         estimate D2E/DX2                !
 ! R5    R(2,10)                 1.54           estimate D2E/DX2                !
 ! R6    R(3,4)                  1.4014         estimate D2E/DX2                !
 ! R7    R(3,39)                 1.76           estimate D2E/DX2                !
 ! R8    R(4,5)                  1.4014         estimate D2E/DX2                !
 ! R9    R(4,40)                 1.76           estimate D2E/DX2                !
 ! R10   R(5,6)                  1.4014         estimate D2E/DX2                !
 ! R11   R(5,8)                  1.07           estimate D2E/DX2                !
 ! R12   R(6,9)                  1.07           estimate D2E/DX2                !
 ! R13   R(10,11)                1.5334         estimate D2E/DX2                !
 ! R14   R(10,12)                1.5334         estimate D2E/DX2                !
 ! R15   R(10,38)                1.07           estimate D2E/DX2                !
 ! R16   R(11,13)                1.3554         estimate D2E/DX2                !
 ! R17   R(11,18)                1.54           estimate D2E/DX2                !
 ! R18   R(12,14)                1.3554         estimate D2E/DX2                !
 ! R19   R(12,15)                1.54           estimate D2E/DX2                !
 ! R20   R(13,28)                1.4768         estimate D2E/DX2                !
 ! R21   R(13,34)                1.54           estimate D2E/DX2                !
 ! R22   R(14,28)                1.4768         estimate D2E/DX2                !
 ! R23   R(14,30)                1.54           estimate D2E/DX2                !
 ! R24   R(15,16)                1.2584         estimate D2E/DX2                !
 ! R25   R(15,17)                1.43           estimate D2E/DX2                !
 ! R26   R(17,21)                1.43           estimate D2E/DX2                !
 ! R27   R(18,19)                1.2584         estimate D2E/DX2                !
 ! R28   R(18,20)                1.43           estimate D2E/DX2                !
 ! R29   R(20,24)                1.43           estimate D2E/DX2                !
 ! R30   R(21,22)                1.07           estimate D2E/DX2                !
 ! R31   R(21,23)                1.07           estimate D2E/DX2                !
 ! R32   R(21,41)                1.54           estimate D2E/DX2                !
 ! R33   R(24,25)                1.07           estimate D2E/DX2                !
 ! R34   R(24,26)                1.07           estimate D2E/DX2                !
 ! R35   R(24,27)                1.07           estimate D2E/DX2                !
 ! R36   R(28,29)                1.0            estimate D2E/DX2                !
 ! R37   R(30,31)                1.07           estimate D2E/DX2                !
 ! R38   R(30,32)                1.07           estimate D2E/DX2                !
 ! R39   R(30,33)                1.07           estimate D2E/DX2                !
 ! R40   R(34,35)                1.07           estimate D2E/DX2                !
 ! R41   R(34,36)                1.07           estimate D2E/DX2                !
 ! R42   R(34,37)                1.07           estimate D2E/DX2                !
 ! R43   R(41,42)                1.07           estimate D2E/DX2                !
 ! R44   R(41,43)                1.07           estimate D2E/DX2                !
 ! R45   R(41,44)                1.07           estimate D2E/DX2                !
 ! A1    A(2,1,6)              120.0            estimate D2E/DX2                !
 ! A2    A(2,1,7)              120.0            estimate D2E/DX2                !
 ! A3    A(6,1,7)              120.0            estimate D2E/DX2                !
 ! A4    A(1,2,3)              120.0            estimate D2E/DX2                !
 ! A5    A(1,2,10)             120.0            estimate D2E/DX2                !
 ! A6    A(3,2,10)             120.0            estimate D2E/DX2                !
 ! A7    A(2,3,4)              120.0            estimate D2E/DX2                !
 ! A8    A(2,3,39)             120.0            estimate D2E/DX2                !
 ! A9    A(4,3,39)             120.0            estimate D2E/DX2                !
 ! A10   A(3,4,5)              120.0            estimate D2E/DX2                !
 ! A11   A(3,4,40)             120.0            estimate D2E/DX2                !
 ! A12   A(5,4,40)             120.0            estimate D2E/DX2                !
 ! A13   A(4,5,6)              120.0            estimate D2E/DX2                !
 ! A14   A(4,5,8)              120.0            estimate D2E/DX2                !
 ! A15   A(6,5,8)              120.0            estimate D2E/DX2                !
 ! A16   A(1,6,5)              120.0            estimate D2E/DX2                !
 ! A17   A(1,6,9)              120.0            estimate D2E/DX2                !
 ! A18   A(5,6,9)              120.0            estimate D2E/DX2                !
 ! A19   A(2,10,11)            109.9752         estimate D2E/DX2                !
 ! A20   A(2,10,12)            109.9752         estimate D2E/DX2                !
 ! A21   A(2,10,38)            109.7326         estimate D2E/DX2                !
 ! A22   A(11,10,12)           111.0798         estimate D2E/DX2                !
 ! A23   A(11,10,38)           108.0138         estimate D2E/DX2                !
 ! A24   A(12,10,38)           108.0138         estimate D2E/DX2                !
 ! A25   A(10,11,13)           121.3365         estimate D2E/DX2                !
 ! A26   A(10,11,18)           119.2943         estimate D2E/DX2                !
 ! A27   A(13,11,18)           119.3612         estimate D2E/DX2                !
 ! A28   A(10,12,14)           121.3365         estimate D2E/DX2                !
 ! A29   A(10,12,15)           119.2943         estimate D2E/DX2                !
 ! A30   A(14,12,15)           119.3612         estimate D2E/DX2                !
 ! A31   A(11,13,28)           122.5325         estimate D2E/DX2                !
 ! A32   A(11,13,34)           118.7634         estimate D2E/DX2                !
 ! A33   A(28,13,34)           118.6947         estimate D2E/DX2                !
 ! A34   A(12,14,28)           122.5325         estimate D2E/DX2                !
 ! A35   A(12,14,30)           118.7634         estimate D2E/DX2                !
 ! A36   A(28,14,30)           118.6947         estimate D2E/DX2                !
 ! A37   A(12,15,16)           120.0            estimate D2E/DX2                !
 ! A38   A(12,15,17)           120.0            estimate D2E/DX2                !
 ! A39   A(16,15,17)           120.0            estimate D2E/DX2                !
 ! A40   A(15,17,21)           109.4712         estimate D2E/DX2                !
 ! A41   A(11,18,19)           120.0            estimate D2E/DX2                !
 ! A42   A(11,18,20)           120.0            estimate D2E/DX2                !
 ! A43   A(19,18,20)           120.0            estimate D2E/DX2                !
 ! A44   A(18,20,24)           109.4712         estimate D2E/DX2                !
 ! A45   A(17,21,22)           109.4712         estimate D2E/DX2                !
 ! A46   A(17,21,23)           109.4712         estimate D2E/DX2                !
 ! A47   A(17,21,41)           109.4712         estimate D2E/DX2                !
 ! A48   A(22,21,23)           109.4712         estimate D2E/DX2                !
 ! A49   A(22,21,41)           109.4712         estimate D2E/DX2                !
 ! A50   A(23,21,41)           109.4712         estimate D2E/DX2                !
 ! A51   A(20,24,25)           109.4712         estimate D2E/DX2                !
 ! A52   A(20,24,26)           109.4712         estimate D2E/DX2                !
 ! A53   A(20,24,27)           109.4712         estimate D2E/DX2                !
 ! A54   A(25,24,26)           109.4712         estimate D2E/DX2                !
 ! A55   A(25,24,27)           109.4712         estimate D2E/DX2                !
 ! A56   A(26,24,27)           109.4712         estimate D2E/DX2                !
 ! A57   A(13,28,14)           113.999          estimate D2E/DX2                !
 ! A58   A(13,28,29)           107.0982         estimate D2E/DX2                !
 ! A59   A(14,28,29)           107.0982         estimate D2E/DX2                !
 ! A60   A(14,30,31)           109.4712         estimate D2E/DX2                !
 ! A61   A(14,30,32)           109.4712         estimate D2E/DX2                !
 ! A62   A(14,30,33)           109.4712         estimate D2E/DX2                !
 ! A63   A(31,30,32)           109.4712         estimate D2E/DX2                !
 ! A64   A(31,30,33)           109.4712         estimate D2E/DX2                !
 ! A65   A(32,30,33)           109.4712         estimate D2E/DX2                !
 ! A66   A(13,34,35)           109.4712         estimate D2E/DX2                !
 ! A67   A(13,34,36)           109.4712         estimate D2E/DX2                !
 ! A68   A(13,34,37)           109.4712         estimate D2E/DX2                !
 ! A69   A(35,34,36)           109.4712         estimate D2E/DX2                !
 ! A70   A(35,34,37)           109.4712         estimate D2E/DX2                !
 ! A71   A(36,34,37)           109.4712         estimate D2E/DX2                !
 ! A72   A(21,41,42)           109.4712         estimate D2E/DX2                !
 ! A73   A(21,41,43)           109.4712         estimate D2E/DX2                !
 ! A74   A(21,41,44)           109.4712         estimate D2E/DX2                !
 ! A75   A(42,41,43)           109.4712         estimate D2E/DX2                !
 ! A76   A(42,41,44)           109.4712         estimate D2E/DX2                !
 ! A77   A(43,41,44)           109.4712         estimate D2E/DX2                !
 ! D1    D(6,1,2,3)              0.0001         estimate D2E/DX2                !
 ! D2    D(6,1,2,10)          -179.9997         estimate D2E/DX2                !
 ! D3    D(7,1,2,3)           -180.0            estimate D2E/DX2                !
 ! D4    D(7,1,2,10)             0.0001         estimate D2E/DX2                !
 ! D5    D(2,1,6,5)              0.0            estimate D2E/DX2                !
 ! D6    D(2,1,6,9)            180.0            estimate D2E/DX2                !
 ! D7    D(7,1,6,5)           -179.9999         estimate D2E/DX2                !
 ! D8    D(7,1,6,9)              0.0001         estimate D2E/DX2                !
 ! D9    D(1,2,3,4)             -0.0001         estimate D2E/DX2                !
 ! D10   D(1,2,3,39)          -179.9999         estimate D2E/DX2                !
 ! D11   D(10,2,3,4)           179.9997         estimate D2E/DX2                !
 ! D12   D(10,2,3,39)            0.0            estimate D2E/DX2                !
 ! D13   D(1,2,10,11)          148.6818         estimate D2E/DX2                !
 ! D14   D(1,2,10,12)          -88.6819         estimate D2E/DX2                !
 ! D15   D(1,2,10,38)           29.9999         estimate D2E/DX2                !
 ! D16   D(3,2,10,11)          -31.318          estimate D2E/DX2                !
 ! D17   D(3,2,10,12)           91.3182         estimate D2E/DX2                !
 ! D18   D(3,2,10,38)         -149.9999         estimate D2E/DX2                !
 ! D19   D(2,3,4,5)              0.0            estimate D2E/DX2                !
 ! D20   D(2,3,4,40)          -179.9998         estimate D2E/DX2                !
 ! D21   D(39,3,4,5)           179.9998         estimate D2E/DX2                !
 ! D22   D(39,3,4,40)           -0.0001         estimate D2E/DX2                !
 ! D23   D(3,4,5,6)              0.0002         estimate D2E/DX2                !
 ! D24   D(3,4,5,8)           -179.9998         estimate D2E/DX2                !
 ! D25   D(40,4,5,6)           180.0            estimate D2E/DX2                !
 ! D26   D(40,4,5,8)             0.0            estimate D2E/DX2                !
 ! D27   D(4,5,6,1)             -0.0002         estimate D2E/DX2                !
 ! D28   D(4,5,6,9)            179.9999         estimate D2E/DX2                !
 ! D29   D(8,5,6,1)            179.9998         estimate D2E/DX2                !
 ! D30   D(8,5,6,9)             -0.0002         estimate D2E/DX2                !
 ! D31   D(2,10,11,13)         144.0727         estimate D2E/DX2                !
 ! D32   D(2,10,11,18)         -36.9646         estimate D2E/DX2                !
 ! D33   D(12,10,11,13)         22.0904         estimate D2E/DX2                !
 ! D34   D(12,10,11,18)       -158.9468         estimate D2E/DX2                !
 ! D35   D(38,10,11,13)        -96.1943         estimate D2E/DX2                !
 ! D36   D(38,10,11,18)         82.7684         estimate D2E/DX2                !
 ! D37   D(2,10,12,14)        -144.0727         estimate D2E/DX2                !
 ! D38   D(2,10,12,15)          36.9646         estimate D2E/DX2                !
 ! D39   D(11,10,12,14)        -22.0904         estimate D2E/DX2                !
 ! D40   D(11,10,12,15)        158.9469         estimate D2E/DX2                !
 ! D41   D(38,10,12,14)         96.1944         estimate D2E/DX2                !
 ! D42   D(38,10,12,15)        -82.7684         estimate D2E/DX2                !
 ! D43   D(10,11,13,28)        -22.9284         estimate D2E/DX2                !
 ! D44   D(10,11,13,34)        158.205          estimate D2E/DX2                !
 ! D45   D(18,11,13,28)        158.1096         estimate D2E/DX2                !
 ! D46   D(18,11,13,34)        -20.7571         estimate D2E/DX2                !
 ! D47   D(10,11,18,19)          0.5083         estimate D2E/DX2                !
 ! D48   D(10,11,18,20)       -179.4918         estimate D2E/DX2                !
 ! D49   D(13,11,18,19)        179.4918         estimate D2E/DX2                !
 ! D50   D(13,11,18,20)         -0.5083         estimate D2E/DX2                !
 ! D51   D(10,12,14,28)         22.9284         estimate D2E/DX2                !
 ! D52   D(10,12,14,30)       -158.205          estimate D2E/DX2                !
 ! D53   D(15,12,14,28)       -158.1096         estimate D2E/DX2                !
 ! D54   D(15,12,14,30)         20.7571         estimate D2E/DX2                !
 ! D55   D(10,12,15,16)         -0.5083         estimate D2E/DX2                !
 ! D56   D(10,12,15,17)        179.4917         estimate D2E/DX2                !
 ! D57   D(14,12,15,16)       -179.4917         estimate D2E/DX2                !
 ! D58   D(14,12,15,17)          0.5082         estimate D2E/DX2                !
 ! D59   D(11,13,28,14)         19.8126         estimate D2E/DX2                !
 ! D60   D(11,13,28,29)        -98.4597         estimate D2E/DX2                !
 ! D61   D(34,13,28,14)       -161.3199         estimate D2E/DX2                !
 ! D62   D(34,13,28,29)         80.4077         estimate D2E/DX2                !
 ! D63   D(11,13,34,35)        -30.5446         estimate D2E/DX2                !
 ! D64   D(11,13,34,36)         89.4554         estimate D2E/DX2                !
 ! D65   D(11,13,34,37)       -150.5446         estimate D2E/DX2                !
 ! D66   D(28,13,34,35)        150.5446         estimate D2E/DX2                !
 ! D67   D(28,13,34,36)        -89.4554         estimate D2E/DX2                !
 ! D68   D(28,13,34,37)         30.5446         estimate D2E/DX2                !
 ! D69   D(12,14,28,13)        -19.8126         estimate D2E/DX2                !
 ! D70   D(12,14,28,29)         98.4597         estimate D2E/DX2                !
 ! D71   D(30,14,28,13)        161.3199         estimate D2E/DX2                !
 ! D72   D(30,14,28,29)        -80.4077         estimate D2E/DX2                !
 ! D73   D(12,14,30,31)        -29.4554         estimate D2E/DX2                !
 ! D74   D(12,14,30,32)         90.5446         estimate D2E/DX2                !
 ! D75   D(12,14,30,33)       -149.4554         estimate D2E/DX2                !
 ! D76   D(28,14,30,31)        149.4554         estimate D2E/DX2                !
 ! D77   D(28,14,30,32)        -90.5446         estimate D2E/DX2                !
 ! D78   D(28,14,30,33)         29.4554         estimate D2E/DX2                !
 ! D79   D(12,15,17,21)       -150.0            estimate D2E/DX2                !
 ! D80   D(16,15,17,21)         30.0            estimate D2E/DX2                !
 ! D81   D(15,17,21,22)        -60.0            estimate D2E/DX2                !
 ! D82   D(15,17,21,23)         60.0            estimate D2E/DX2                !
 ! D83   D(15,17,21,41)        180.0            estimate D2E/DX2                !
 ! D84   D(11,18,20,24)       -150.0            estimate D2E/DX2                !
 ! D85   D(19,18,20,24)         30.0            estimate D2E/DX2                !
 ! D86   D(18,20,24,25)        180.0            estimate D2E/DX2                !
 ! D87   D(18,20,24,26)        -60.0            estimate D2E/DX2                !
 ! D88   D(18,20,24,27)         60.0            estimate D2E/DX2                !
 ! D89   D(17,21,41,42)        180.0            estimate D2E/DX2                !
 ! D90   D(17,21,41,43)        -60.0            estimate D2E/DX2                !
 ! D91   D(17,21,41,44)         60.0            estimate D2E/DX2                !
 ! D92   D(22,21,41,42)         60.0            estimate D2E/DX2                !
 ! D93   D(22,21,41,43)        180.0            estimate D2E/DX2                !
 ! D94   D(22,21,41,44)        -60.0            estimate D2E/DX2                !
 ! D95   D(23,21,41,42)        -60.0            estimate D2E/DX2                !
 ! D96   D(23,21,41,43)         60.0            estimate D2E/DX2                !
 ! D97   D(23,21,41,44)        180.0            estimate D2E/DX2                !
 --------------------------------------------------------------------------------
 Trust Radius=3.00D-01 FncErr=1.00D-07 GrdErr=1.00D-06 EigMax=2.50D+02 EigMin=1.00D-04
 Number of steps in this run=    229 maximum allowed number of steps=    264.
 GradGradGradGradGradGradGradGradGradGradGradGradGradGradGradGradGradGrad

 Leave Link  103 at Wed Jun  4 15:51:44 2025, MaxMem=  2147483648 cpu:               0.1 elap:               0.0
 (Enter /Apps/Gaussian/G16//g16/l202.exe)
                          Input orientation:                          
 ---------------------------------------------------------------------
 Center     Atomic      Atomic             Coordinates (Angstroms)
 Number     Number       Type             X           Y           Z
 ---------------------------------------------------------------------
      1          6           0       -0.694717    0.532341    0.075258
      2          6           0        0.590034    0.087704   -0.264793
      3          6           0        1.539375    0.995651   -0.752956
      4          6           0        1.203965    2.348235   -0.901072
      5          6           0       -0.080787    2.792872   -0.561025
      6          6           0       -1.030127    1.884925   -0.072858
      7          1           0       -1.419561   -0.160897    0.447982
      8          1           0       -0.336881    3.825599   -0.674117
      9          1           0       -2.011064    2.224416    0.186778
     10          6           0        0.958614   -1.398653   -0.102033
     11          6           0        1.985543   -1.803268   -1.166397
     12          6           0        1.498871   -1.652745    1.310314
     13          6           0        2.972500   -2.690804   -0.892213
     14          6           0        2.495748   -2.543349    1.534019
     15          6           0        0.879639   -0.897649    2.501104
     16          8           0       -0.053045   -0.075164    2.308262
     17          8           0        1.364506   -1.131132    3.825978
     18          6           0        1.878477   -1.206579   -2.582059
     19          8           0        0.961032   -0.388805   -2.852452
     20          8           0        2.821611   -1.581797   -3.589337
     21          6           0        0.303565   -0.931896    4.763853
     22          1           0       -0.055917    0.073016    4.687543
     23          1           0       -0.493606   -1.613026    4.550592
     24          6           0        2.997855   -0.497562   -4.504910
     25          1           0        3.703557   -0.778320   -5.258608
     26          1           0        2.060369   -0.262396   -4.963949
     27          1           0        3.361514    0.359310   -3.977252
     28          7           0        3.448555   -2.949816    0.481510
     29          1           0        4.279153   -2.408405    0.611818
     30          6           0        2.657376   -3.135396    2.946448
     31          1           0        2.313542   -2.427499    3.671403
     32          1           0        2.081804   -4.034019    3.024518
     33          1           0        3.689082   -3.356028    3.124786
     34          6           0        3.641140   -3.439664   -2.060002
     35          1           0        2.933402   -3.570314   -2.851796
     36          1           0        4.474940   -2.871991   -2.416969
     37          1           0        3.979651   -4.396997   -1.722625
     38          1           0        0.086589   -2.003933   -0.236600
     39         17           0        3.152877    0.437236   -1.180024
     40         17           0        2.396230    3.488514   -1.514155
     41          6           0        0.825730   -1.183340    6.190640
     42          1           0        0.031879   -1.034261    6.892407
     43          1           0        1.185212   -2.188252    6.266951
     44          1           0        1.622901   -0.502210    6.403901
 ---------------------------------------------------------------------
                    Distance matrix (angstroms):
                    1          2          3          4          5
     1  C    0.000000
     2  C    1.401400   0.000000
     3  C    2.427296   1.401400   0.000000
     4  C    2.802800   2.427296   1.401400   0.000000
     5  C    2.427296   2.802800   2.427296   1.401400   0.000000
     6  C    1.401400   2.427296   2.802800   2.427296   1.401400
     7  H    1.070000   2.146700   3.396345   3.872800   3.396345
     8  H    3.396345   3.872800   3.396345   2.146700   1.070000
     9  H    2.146700   3.396345   3.872800   3.396345   2.146700
    10  C    2.548270   1.540000   2.548270   3.838989   4.342800
    11  C    3.765710   2.517163   2.864253   4.232757   5.075499
    12  C    3.333436   2.517163   3.357489   4.580944   5.075504
    13  C    4.977263   3.713477   3.957675   5.340385   6.285137
    14  C    4.665503   3.713476   4.320813   5.614799   6.285141
    15  C    3.226174   2.950420   3.822139   4.713360   4.890705
    16  O    2.401481   2.657195   3.612963   4.213403   4.056994
    17  O    4.590800   4.338176   5.051774   5.871693   6.060732
    18  C    4.087359   2.950420   2.882780   3.989660   4.890695
    19  O    3.487335   2.657195   2.580520   3.370206   4.056981
    20  O    5.501218   4.338176   4.041339   5.028787   6.060719
    21  C    5.012334   5.138962   5.973094   6.607675   6.509681
    22  H    4.678912   4.994306   5.744148   6.164133   5.911488
    23  H    4.967058   5.220602   6.250267   6.949388   6.760990
    24  C    5.972749   4.911083   4.293484   4.929934   5.988257
    25  H    7.036531   5.948295   5.303918   5.917045   7.010132
    26  H    5.797907   4.936247   4.425673   4.904671   5.771045
    27  H    5.736357   4.640822   3.757819   4.251320   5.426073
    28  N    5.427445   4.237291   4.553634   5.917691   6.820674
    29  H    5.803040   4.539670   4.577836   5.862699   6.887519
    30  C    5.738690   4.997434   5.656949   6.854635   7.412440
    31  H    5.544596   4.978992   5.647322   6.704203   7.134321
    32  H    6.104003   5.480286   6.313566   7.544138   8.008705
    33  H    6.605810   5.740438   6.212506   7.410935   8.099758
    34  C    6.255862   4.997434   5.079153   6.386134   7.412433
    35  H    6.209886   5.056190   5.215024   6.467264   7.404263
    36  H    6.672782   5.337055   5.132751   6.344129   7.502656
    37  H    7.027125   5.807523   5.997988   7.340132   8.338506
    38  H    2.672150   2.151557   3.372643   4.542183   4.810677
    39  Cl   4.048303   2.743718   1.760000   2.743718   4.048303
    40  Cl   4.562800   4.048303   2.743718   1.760000   2.743718
    41  C    6.530943   6.583594   7.312375   7.931423   7.887776
    42  H    7.032475   7.266075   8.052619   8.576327   8.379337
    43  H    7.019461   6.942470   7.716332   8.482961   8.546087
    44  H    6.818605   6.773942   7.312399   7.852591   7.891154
                    6          7          8          9         10
     6  C    0.000000
     7  H    2.146700   0.000000
     8  H    2.146700   4.280590   0.000000
     9  H    1.070000   2.471400   2.471400   0.000000
    10  C    3.838989   2.736837   5.412800   4.693509   0.000000
    11  C    4.888032   4.110758   6.109021   5.833196   1.533351
    12  C    4.563344   3.389170   6.109027   5.349238   1.533351
    13  C    6.134303   5.242781   7.311845   7.082338   2.519876
    14  C    5.884170   4.710116   7.311850   6.697611   2.519876
    15  C    4.244433   3.169296   5.819882   4.843507   2.652087
    16  O    3.235177   2.309839   4.918445   3.690880   2.929949
    17  O    5.480127   4.483664   6.907587   5.991490   3.957978
    18  C    4.930869   4.599093   5.819868   5.879346   2.652087
    19  O    4.106180   4.075786   4.918427   4.989909   2.929949
    20  O    6.262562   6.025483   6.907569   7.218105   3.957978
    21  C    5.753868   4.710664   7.253652   6.022411   4.931917
    22  H    5.185896   4.459609   6.550437   5.357985   5.112252
    23  H    5.822355   4.449437   7.543262   6.005957   4.878712
    24  C    6.445462   6.645152   6.669720   7.383113   4.935159
    25  H    7.509504   7.693680   7.651063   8.445444   5.874503
    26  H    6.171299   6.434999   6.392275   7.020740   5.113039
    27  H    6.071104   6.535441   6.050123   7.048571   4.886889
    28  N    6.613671   5.610503   7.846735   7.527747   2.991059
    29  H    6.862210   6.128089   7.862837   7.823714   3.543326
    30  C    6.922248   5.631287   8.398186   7.624807   3.898116
    31  H    6.617902   5.428074   8.062849   7.244663   4.139224
    32  H    7.369651   5.822299   9.016847   7.998271   4.240522
    33  H    7.743607   6.593358   9.067293   8.500876   4.658232
    34  C    7.356679   6.530772   8.398176   8.311270   3.898116
    35  H    7.293264   6.439018   8.374758   8.201193   4.022076
    36  H    7.643878   7.092469   8.429049   8.649919   4.460291
    37  H    8.202571   7.197748   9.345743   9.131133   4.554454
    38  H    4.049332   2.476676   5.861246   4.739022   1.070000
    39  Cl   4.562800   4.890332   4.890332   5.632800   3.057342
    40  Cl   4.048303   5.632800   2.879094   4.890332   5.286324
    41  C    7.217331   6.250187   8.577064   7.463683   6.297758
    42  H    7.626561   6.663337   9.000362   7.730334   7.064971
    43  H    7.854405   6.689949   9.309222   8.164332   6.421742
    44  H    7.394956   6.696719   8.524613   7.700182   6.600914
                   11         12         13         14         15
    11  C    0.000000
    12  C    2.528557   0.000000
    13  C    1.355353   2.846098   0.000000
    14  C    2.846098   1.355353   2.477022   0.000000
    15  C    3.936208   1.540000   4.371507   2.501078   0.000000
    16  O    4.383541   2.427572   5.122356   3.631492   1.258400
    17  O    5.075555   2.572683   5.222983   2.920127   1.430000
    18  C    1.540000   3.936208   2.501078   4.371507   5.189573
    19  O    2.427572   4.383541   3.631492   5.122356   5.378300
    20  O    2.572683   5.075555   2.920127   5.222982   6.429058
    21  C    6.225448   3.724958   6.496773   4.223065   2.335180
    22  H    6.477392   4.098938   6.924138   4.827118   2.568651
    23  H    6.234287   3.804070   6.542142   4.347580   2.568651
    24  C    3.724958   6.115409   4.226409   6.395781   7.330153
    25  H    4.555028   6.983981   4.822597   7.121369   8.258443
    26  H    4.098938   6.450948   4.827855   6.900427   7.584504
    27  H    3.804069   5.956187   4.355685   6.288806   7.050443
    28  N    2.484064   2.484064   1.476763   1.476763   3.858688
    29  H    2.964606   2.964606   2.012262   2.012262   4.172347
    30  C    4.375091   2.493456   3.877149   1.540000   2.892437
    31  H    4.888922   2.615086   4.618457   2.148263   2.401274
    32  H    4.748609   2.991449   4.235369   2.148263   3.399408
    33  H    4.871074   3.315193   4.134282   2.148263   3.784914
    34  C    2.493456   4.375091   1.540000   3.877149   5.906895
    35  H    2.619439   4.801886   2.148263   4.525657   6.325711
    36  H    2.983823   4.923026   2.148263   4.431197   6.404034
    37  H    3.318628   4.783713   2.148263   4.030349   6.300429
    38  H    2.123868   2.123868   3.038108   3.038108   3.057420
    39  Cl   2.526403   3.647676   3.146427   4.084328   4.527719
    40  Cl   5.319074   5.934258   6.237216   6.759041   6.136838
    41  C    7.473652   4.948843   7.553005   5.130566   3.700973
    42  H    8.327815   5.804684   8.484792   6.087719   4.474472
    43  H    7.486214   4.995338   7.395985   4.923845   3.992572
    44  H    7.689842   5.223385   7.735932   5.351997   3.992572
                   16         17         18         19         20
    16  O    0.000000
    17  O    2.329803   0.000000
    18  C    5.378300   6.429059   0.000000
    19  O    5.268746   6.731661   1.258400   0.000000
    20  O    6.731661   7.570545   1.430000   2.329803   0.000000
    21  C    2.625089   1.430000   7.517861   7.663897   8.748641
    22  H    2.383892   2.051796   7.630619   7.622269   8.917696
    23  H    2.754480   2.051796   7.527728   7.643282   8.789203
    24  C    7.477013   8.513104   2.335180   2.625089   1.430000
    25  H    8.477264   9.387509   3.267757   3.669162   2.051796
    26  H    7.575396   8.860121   2.568651   2.383892   2.051796
    27  H    7.166287   8.191450   2.568651   2.754480   2.051796
    28  N    4.884859   4.340085   3.858688   4.884859   4.340084
    29  H    5.204794   4.522988   4.172347   5.204793   4.522987
    30  C    4.137473   2.542078   5.906895   6.636911   6.719906
    31  H    3.604493   1.614042   6.386370   6.967513   7.327462
    32  H    4.554463   3.095740   6.282473   7.005889   7.092516
    33  H    5.043243   3.293248   6.361328   7.209302   6.998560
    34  C    6.636911   6.719906   2.892437   4.137474   2.542078
    35  H    6.910944   7.280365   2.602474   3.743293   2.123833
    36  H    7.117071   7.188865   3.089089   4.324743   2.402611
    37  H    7.154644   6.949234   3.915652   5.143362   3.570857
    38  H    3.196243   4.347343   3.057420   3.196243   4.347343
    39  Cl   4.765357   5.542392   2.508371   2.878114   3.160858
    40  Cl   5.771448   7.136007   4.842765   4.345622   5.495032
    41  C    4.131968   2.425826   8.835670   9.078938   9.989508
    42  H    4.684172   3.344887   9.654280   9.810312  10.860450
    43  H    4.655067   2.666083   8.930245   9.297945  10.009596
    44  H    4.445833   2.666083   9.017147   9.280679  10.122610
                   21         22         23         24         25
    21  C    0.000000
    22  H    1.070000   0.000000
    23  H    1.070000   1.747303   0.000000
    24  C    9.662185   9.703209   9.769170   0.000000
    25  H   10.584576  10.666973  10.702024   1.070000   0.000000
    26  H    9.907812   9.886479   9.943515   1.070000   1.747303
    27  H    9.350144   9.318769   9.564319   1.070000   1.747303
    28  N    5.683434   6.253762   5.821088   5.575039   6.142424
    29  H    5.935046   6.446845   6.239054   5.610165   6.119672
    30  C    3.701189   4.548327   3.849620   7.911816   8.600770
    31  H    2.733181   3.591580   3.052281   8.428822   9.186786
    32  H    3.976252   4.919678   3.850044   8.368869   9.046537
    33  H    4.474894   5.312774   4.750353   8.176850   8.770751
    34  C    7.999581   8.457925   8.008288   3.879092   4.161457
    35  H    8.477937   8.891092   8.388726   3.489806   3.765782
    36  H    8.528103   8.926131   8.649760   3.489869   3.612949
    37  H    8.221614   8.795287   8.192300   4.889849   5.066973
    38  H    5.118679   5.346139   4.838041   5.381737   6.309132
    39  Cl   6.732219   6.697563   7.095095   3.457275   4.291348
    40  Cl   7.958182   7.492643   8.435521   5.019499   5.825453
    41  C    1.540000   2.148263   2.148263  10.935411  11.812333
    42  H    2.148263   2.468846   2.468846  11.789143  12.696215
    43  H    2.148263   3.024610   2.468846  11.053375  11.881434
    44  H    2.148263   2.468846   3.024610  10.995121  11.849872
                   26         27         28         29         30
    26  H    0.000000
    27  H    1.747303   0.000000
    28  N    6.229150   5.553238   0.000000
    29  H    6.373189   5.437083   1.000000   0.000000
    30  C    8.437116   7.787580   2.595443   2.934140   0.000000
    31  H    8.906238   8.207709   3.425856   3.636627   1.070000
    32  H    8.834093   8.364435   3.083892   3.645831   1.070000
    33  H    8.811975   8.021844   2.685101   2.749760   1.070000
    34  C    4.585496   4.264533   2.595443   2.934140   5.111253
    35  H    4.020659   4.109973   3.429480   3.893289   5.821080
    36  H    4.373470   3.757061   3.075826   3.070309   5.669141
    37  H    5.593277   5.299801   2.689723   3.081205   5.014010
    38  H    5.410785   5.504773   3.565556   4.296627   4.245108
    39  Cl   4.000144   2.806081   3.784210   3.546388   5.480602
    40  Cl   5.107172   4.097626   6.822181   6.545136   7.990079
    41  C   11.260433  10.592261   6.526394   6.674592   4.205976
    42  H   12.053371  11.453297   7.512830   7.705414   5.184457
    43  H   11.428384  10.778222   6.258916   6.449920   3.753677
    44  H   11.378792  10.560934   6.663220   6.651126   4.467414
                   31         32         33         34         35
    31  H    0.000000
    32  H    1.747303   0.000000
    33  H    1.747303   1.747303   0.000000
    34  C    5.969589   5.351367   5.185683   0.000000
    35  H    6.651495   5.955779   6.027976   1.070000   0.000000
    36  H    6.475916   6.056995   5.618088   1.070000   1.747303
    37  H    5.979163   5.125324   4.966431   1.070000   1.747303
    38  H    4.517877   4.328628   5.109308   4.245108   4.170989
    39  Cl   5.696274   6.230369   5.762617   4.005386   4.347810
    40  Cl   7.867405   8.791297   8.368930   7.060268   7.204505
    41  C    3.179320   4.441669   4.724280   9.005033   9.586740
    42  H    4.185924   5.306722   5.741141   9.947781  10.478545
    43  H    2.840288   3.837200   4.184049   8.771303   9.387109
    44  H    3.413249   4.909633   4.813105   9.183658   9.838628
                   36         37         38         39         40
    36  H    0.000000
    37  H    1.747303   0.000000
    38  H    4.976460   4.805305   0.000000
    39  Cl   3.772117   4.934347   4.031312   0.000000
    40  Cl   6.752194   8.045617   6.093731   3.161400   0.000000
    41  C    9.500485   9.104646   6.521435   7.897377   9.146396
    42  H   10.477716  10.055431   7.194859   8.778956   9.834426
    43  H    9.311298   8.747616   6.598266   8.137711   9.707618
    44  H    9.568581   9.314723   6.979375   7.793543   8.900535
                   41         42         43         44
    41  C    0.000000
    42  H    1.070000   0.000000
    43  H    1.070000   1.747303   0.000000
    44  H    1.070000   1.747303   1.747303   0.000000
 Stoichiometry    C18H19Cl2NO4
 Framework group  C1[X(C18H19Cl2NO4)]
 Deg. of freedom   126
 Full point group                 C1      NOp   1
 Largest Abelian subgroup         C1      NOp   1
 Largest concise Abelian subgroup C1      NOp   1
                         Standard orientation:                         
 ---------------------------------------------------------------------
 Center     Atomic      Atomic             Coordinates (Angstroms)
 Number     Number       Type             X           Y           Z
 ---------------------------------------------------------------------
      1          6           0       -0.262920    1.882845   -1.721386
      2          6           0        0.192208    0.875669   -0.859772
      3          6           0        1.065377    1.192867    0.189458
      4          6           0        1.483421    2.517239    0.377072
      5          6           0        1.028295    3.524414   -0.484543
      6          6           0        0.155124    3.207217   -1.533771
      7          1           0       -0.929604    1.640658   -2.522496
      8          1           0        1.347483    4.535601   -0.341297
      9          1           0       -0.192376    3.976218   -2.191632
     10          6           0       -0.267175   -0.579686   -1.065946
     11          6           0        0.836072   -1.545693   -0.617794
     12          6           0       -1.568243   -0.832509   -0.294928
     13          6           0        0.539956   -2.724304   -0.017649
     14          6           0       -1.815355   -2.025656    0.298636
     15          6           0       -2.625282    0.284493   -0.213832
     16          8           0       -2.412412    1.393695   -0.768745
     17          8           0       -3.848715    0.061251    0.492052
     18          6           0        2.309297   -1.179236   -0.876477
     19          8           0        2.597450   -0.092364   -1.441498
     20          8           0        3.349845   -2.074034   -0.474612
     21          6           0       -4.890290    0.841304   -0.100855
     22          1           0       -4.632715    1.878540   -0.048938
     23          1           0       -5.011789    0.554785   -1.124596
     24          6           0        4.525695   -1.325263   -0.155837
     25          1           0        5.304287   -1.994798    0.144859
     26          1           0        4.841927   -0.774179   -1.016770
     27          1           0        4.310704   -0.646543    0.642922
     28          7           0       -0.737944   -2.959095    0.684260
     29          1           0       -0.566650   -2.823390    1.660089
     30          6           0       -3.273946   -2.412366    0.606153
     31          1           0       -3.848505   -1.526761    0.780754
     32          1           0       -3.684506   -2.945659   -0.225676
     33          1           0       -3.302264   -3.033367    1.477047
     34          6           0        1.586161   -3.854005   -0.046491
     35          1           0        2.169497   -3.777171   -0.940200
     36          1           0        2.226959   -3.768541    0.806136
     37          1           0        1.088935   -4.801224   -0.025450
     38          1           0       -0.458444   -0.754519   -2.104093
     39         17           0        1.636969   -0.072032    1.271545
     40         17           0        2.580026    2.915602    1.694784
     41          6           0       -6.207834    0.600889    0.659328
     42          1           0       -6.987195    1.184565    0.215685
     43          1           0       -6.465410   -0.436347    0.607411
     44          1           0       -6.086335    0.887408    1.683069
 ---------------------------------------------------------------------
 Rotational constants (GHZ):           0.2650722           0.1658153           0.1193345
 Leave Link  202 at Wed Jun  4 15:51:44 2025, MaxMem=  2147483648 cpu:               0.0 elap:               0.0
 (Enter /Apps/Gaussian/G16//g16/l301.exe)
 Standard basis: 6-311G (5D, 7F)
 Ernie: Thresh=  0.10000D-02 Tol=  0.10000D-05 Strict=F.
 There are   398 symmetry adapted cartesian basis functions of A   symmetry.
 There are   398 symmetry adapted basis functions of A   symmetry.
   398 basis functions,   779 primitive gaussians,   398 cartesian basis functions
   100 alpha electrons      100 beta electrons
       nuclear repulsion energy      2700.6314849988 Hartrees.
 IExCor=  402 DFT=T Ex+Corr=B3LYP ExCW=0 ScaHFX=  0.200000
 ScaDFX=  0.800000  0.720000  1.000000  0.810000 ScalE2=  1.000000  1.000000
 IRadAn=      5 IRanWt=     -1 IRanGd=            0 ICorTp=0 IEmpDi=  4
 NAtoms=   44 NActive=   44 NUniq=   44 SFac= 1.00D+00 NAtFMM=   60 NAOKFM=F Big=F
 Integral buffers will be    131072 words long.
 Raffenetti 2 integral format.
 Two-electron integral symmetry is turned on.
 Leave Link  301 at Wed Jun  4 15:51:44 2025, MaxMem=  2147483648 cpu:               0.4 elap:               0.0
 (Enter /Apps/Gaussian/G16//g16/l302.exe)
 NPDir=0 NMtPBC=     1 NCelOv=     1 NCel=       1 NClECP=     1 NCelD=      1
         NCelK=      1 NCelE2=     1 NClLst=     1 CellRange=     0.0.
 One-electron integrals computed using PRISM.
 One-electron integral symmetry used in STVInt
 NBasis=   398 RedAO= T EigKep=  2.05D-04  NBF=   398
 NBsUse=   398 1.00D-06 EigRej= -1.00D+00 NBFU=   398
 Precomputing XC quadrature grid using
 IXCGrd= 4 IRadAn=           5 IRanWt=          -1 IRanGd=           0 AccXCQ= 0.00D+00.
 Generated NRdTot=       0 NPtTot=           0 NUsed=           0 NTot=          32
 NSgBfM=   390   390   390   390   390 MxSgAt=    44 MxSgA2=    44.
 Leave Link  302 at Wed Jun  4 15:51:44 2025, MaxMem=  2147483648 cpu:               3.2 elap:               0.2
 (Enter /Apps/Gaussian/G16//g16/l303.exe)
 DipDrv:  MaxL=1.
 Leave Link  303 at Wed Jun  4 15:51:44 2025, MaxMem=  2147483648 cpu:               0.5 elap:               0.0
 (Enter /Apps/Gaussian/G16//g16/l401.exe)
 ExpMin= 1.03D-01 ExpMax= 1.06D+05 ExpMxC= 3.62D+03 IAcc=3 IRadAn=         5 AccDes= 0.00D+00
 Harris functional with IExCor=  402 and IRadAn=       5 diagonalized for initial guess.
 HarFok:  IExCor=  402 AccDes= 0.00D+00 IRadAn=         5 IDoV= 1 UseB2=F ITyADJ=14
 ICtDFT=  3500011 ScaDFX=  1.000000  1.000000  1.000000  1.000000
 FoFCou: FMM=F IPFlag=           0 FMFlag=      100000 FMFlg1=           0
         NFxFlg=           0 DoJE=T BraDBF=F KetDBF=T FulRan=T
         wScrn=  0.000000 ICntrl=       500 IOpCl=  0 I1Cent=   200000004 NGrid=           0
         NMat0=    1 NMatS0=      1 NMatT0=    0 NMatD0=    1 NMtDS0=    0 NMtDT0=    0
 Petite list used in FoFCou.
 Harris En= -1973.22758898876    
 JPrj=0 DoOrth=F DoCkMO=F.
 Leave Link  401 at Wed Jun  4 15:51:45 2025, MaxMem=  2147483648 cpu:              15.3 elap:               1.0
 (Enter /Apps/Gaussian/G16//g16/l502.exe)
 Integral symmetry usage will be decided dynamically.
 Closed shell SCF:
 Using DIIS extrapolation, IDIIS=  1040.
 NGot=  2147483648 LenX=  2147155979 LenY=  2146997134
 Requested convergence on RMS density matrix=1.00D-08 within 128 cycles.
 Requested convergence on MAX density matrix=1.00D-06.
 Requested convergence on             energy=1.00D-06.
 No special actions if energy rises.
 Fock matrices will be formed incrementally for  20 cycles.
 Integral accuracy reduced to 1.0D-05 until final iterations.

 Cycle   1  Pass 0  IDiag  1:
 FoFJK:  IHMeth= 1 ICntrl=       0 DoSepK=F KAlg= 0 I1Cent=           0 FoldK=F
 IRaf= 750000000 NMat=       1 IRICut=       1 DoRegI=T DoRafI=F ISym2E= 0 IDoP0=0 IntGTp=1.
 FoFCou: FMM=F IPFlag=           0 FMFlag=      100000 FMFlg1=           0
         NFxFlg=           0 DoJE=F BraDBF=F KetDBF=F FulRan=T
         wScrn=  0.000000 ICntrl=         0 IOpCl=  0 I1Cent=           0 NGrid=           0
         NMat0=    1 NMatS0=      1 NMatT0=    0 NMatD0=    1 NMtDS0=    0 NMtDT0=    0
 Symmetry not used in FoFCou.
 E= -1972.43491431261    
 DIIS: error= 3.32D-02 at cycle   1 NSaved=   1.
 NSaved= 1 IEnMin= 1 EnMin= -1972.43491431261     IErMin= 1 ErrMin= 3.32D-02
 ErrMax= 3.32D-02  0.00D+00 EMaxC= 1.00D-01 BMatC= 9.41D-01 BMatP= 9.41D-01
 IDIUse=3 WtCom= 6.68D-01 WtEn= 3.32D-01
 Coeff-Com:  0.100D+01
 Coeff-En:   0.100D+01
 Coeff:      0.100D+01
 Gap=     0.266 Goal=   None    Shift=    0.000
 GapD=    0.266 DampG=1.000 DampE=0.500 DampFc=0.5000 IDamp=-1.
 Damping current iteration by 5.00D-01
 RMSDP=7.64D-03 MaxDP=6.34D-01              OVMax= 3.40D-01

 Cycle   2  Pass 0  IDiag  1:
 RMSU=  3.82D-03    CP:  1.01D+00
 E= -1972.50335101288     Delta-E=       -0.068436700272 Rises=F Damp=T
 DIIS: error= 1.83D-02 at cycle   2 NSaved=   2.
 NSaved= 2 IEnMin= 2 EnMin= -1972.50335101288     IErMin= 2 ErrMin= 1.83D-02
 ErrMax= 1.83D-02  0.00D+00 EMaxC= 1.00D-01 BMatC= 2.48D-01 BMatP= 9.41D-01
 IDIUse=3 WtCom= 8.17D-01 WtEn= 1.83D-01
 Coeff-Com:  0.278D+00 0.722D+00
 Coeff-En:   0.462D+00 0.538D+00
 Coeff:      0.311D+00 0.689D+00
 Gap=     0.247 Goal=   None    Shift=    0.000
 RMSDP=3.09D-03 MaxDP=1.75D-01 DE=-6.84D-02 OVMax= 2.99D-01

 Cycle   3  Pass 0  IDiag  1:
 RMSU=  2.32D-03    CP:  1.01D+00  4.65D-01
 E= -1972.98998982808     Delta-E=       -0.486638815196 Rises=F Damp=F
 DIIS: error= 2.46D-02 at cycle   3 NSaved=   3.
 NSaved= 3 IEnMin= 3 EnMin= -1972.98998982808     IErMin= 2 ErrMin= 1.83D-02
 ErrMax= 2.46D-02  0.00D+00 EMaxC= 1.00D-01 BMatC= 2.50D-01 BMatP= 2.48D-01
 IDIUse=3 WtCom= 7.54D-01 WtEn= 2.46D-01
 Coeff-Com:  0.947D-01 0.480D+00 0.425D+00
 Coeff-En:   0.000D+00 0.494D-01 0.951D+00
 Coeff:      0.714D-01 0.375D+00 0.554D+00
 Gap=     0.164 Goal=   None    Shift=    0.000
 RMSDP=2.31D-03 MaxDP=8.81D-02 DE=-4.87D-01 OVMax= 1.57D-01

 Cycle   4  Pass 0  IDiag  1:
 RMSU=  1.32D-03    CP:  1.02D+00  7.26D-01  3.08D-01
 E= -1973.10288812338     Delta-E=       -0.112898295302 Rises=F Damp=F
 DIIS: error= 1.99D-02 at cycle   4 NSaved=   4.
 NSaved= 4 IEnMin= 4 EnMin= -1973.10288812338     IErMin= 2 ErrMin= 1.83D-02
 ErrMax= 1.99D-02  0.00D+00 EMaxC= 1.00D-01 BMatC= 1.32D-01 BMatP= 2.48D-01
 IDIUse=3 WtCom= 8.01D-01 WtEn= 1.99D-01
 Coeff-Com:  0.255D-01 0.991D-01 0.403D+00 0.472D+00
 Coeff-En:   0.000D+00 0.000D+00 0.368D+00 0.632D+00
 Coeff:      0.204D-01 0.794D-01 0.396D+00 0.504D+00
 Gap=     0.159 Goal=   None    Shift=    0.000
 RMSDP=1.06D-03 MaxDP=4.52D-02 DE=-1.13D-01 OVMax= 8.47D-02

 Cycle   5  Pass 0  IDiag  1:
 RMSU=  4.29D-04    CP:  1.02D+00  6.18D-01  5.92D-01  5.68D-01
 E= -1973.20076815842     Delta-E=       -0.097880035036 Rises=F Damp=F
 DIIS: error= 3.61D-03 at cycle   5 NSaved=   5.
 NSaved= 5 IEnMin= 5 EnMin= -1973.20076815842     IErMin= 5 ErrMin= 3.61D-03
 ErrMax= 3.61D-03  0.00D+00 EMaxC= 1.00D-01 BMatC= 8.00D-03 BMatP= 1.32D-01
 IDIUse=3 WtCom= 9.64D-01 WtEn= 3.61D-02
 Coeff-Com:  0.554D-02 0.585D-02 0.215D+00 0.336D+00 0.437D+00
 Coeff-En:   0.000D+00 0.000D+00 0.000D+00 0.140D-01 0.986D+00
 Coeff:      0.534D-02 0.564D-02 0.207D+00 0.325D+00 0.457D+00
 Gap=     0.147 Goal=   None    Shift=    0.000
 RMSDP=3.85D-04 MaxDP=1.71D-02 DE=-9.79D-02 OVMax= 3.12D-02

 Cycle   6  Pass 0  IDiag  1:
 RMSU=  2.21D-04    CP:  1.01D+00  6.04D-01  5.39D-01  5.74D-01  3.49D-01
 E= -1973.20735679113     Delta-E=       -0.006588632714 Rises=F Damp=F
 DIIS: error= 1.38D-03 at cycle   6 NSaved=   6.
 NSaved= 6 IEnMin= 6 EnMin= -1973.20735679113     IErMin= 6 ErrMin= 1.38D-03
 ErrMax= 1.38D-03  0.00D+00 EMaxC= 1.00D-01 BMatC= 9.08D-04 BMatP= 8.00D-03
 IDIUse=3 WtCom= 9.86D-01 WtEn= 1.38D-02
 Coeff-Com:  0.802D-03-0.850D-02 0.645D-01 0.111D+00 0.287D+00 0.544D+00
 Coeff-En:   0.000D+00 0.000D+00 0.000D+00 0.000D+00 0.133D+00 0.867D+00
 Coeff:      0.791D-03-0.838D-02 0.636D-01 0.110D+00 0.285D+00 0.549D+00
 Gap=     0.148 Goal=   None    Shift=    0.000
 RMSDP=1.50D-04 MaxDP=8.32D-03 DE=-6.59D-03 OVMax= 1.27D-02

 Cycle   7  Pass 0  IDiag  1:
 RMSU=  5.77D-05    CP:  1.02D+00  6.06D-01  5.66D-01  5.88D-01  5.10D-01
                    CP:  5.47D-01
 E= -1973.20818559564     Delta-E=       -0.000828804506 Rises=F Damp=F
 DIIS: error= 4.13D-04 at cycle   7 NSaved=   7.
 NSaved= 7 IEnMin= 7 EnMin= -1973.20818559564     IErMin= 7 ErrMin= 4.13D-04
 ErrMax= 4.13D-04  0.00D+00 EMaxC= 1.00D-01 BMatC= 1.24D-04 BMatP= 9.08D-04
 IDIUse=3 WtCom= 9.96D-01 WtEn= 4.13D-03
 Coeff-Com:  0.199D-03-0.507D-02 0.844D-02 0.161D-01 0.112D+00 0.354D+00
 Coeff-Com:  0.514D+00
 Coeff-En:   0.000D+00 0.000D+00 0.000D+00 0.000D+00 0.000D+00 0.951D-01
 Coeff-En:   0.905D+00
 Coeff:      0.198D-03-0.505D-02 0.840D-02 0.160D-01 0.112D+00 0.353D+00
 Coeff:      0.516D+00
 Gap=     0.148 Goal=   None    Shift=    0.000
 RMSDP=3.47D-05 MaxDP=1.49D-03 DE=-8.29D-04 OVMax= 3.40D-03

 Cycle   8  Pass 0  IDiag  1:
 RMSU=  1.97D-05    CP:  1.02D+00  6.06D-01  5.64D-01  5.91D-01  4.94D-01
                    CP:  6.08D-01  5.94D-01
 E= -1973.20829157747     Delta-E=       -0.000105981832 Rises=F Damp=F
 DIIS: error= 1.13D-04 at cycle   8 NSaved=   8.
 NSaved= 8 IEnMin= 8 EnMin= -1973.20829157747     IErMin= 8 ErrMin= 1.13D-04
 ErrMax= 1.13D-04  0.00D+00 EMaxC= 1.00D-01 BMatC= 9.55D-06 BMatP= 1.24D-04
 IDIUse=3 WtCom= 9.99D-01 WtEn= 1.13D-03
 Coeff-Com:  0.266D-03-0.211D-02 0.101D-02 0.163D-02 0.464D-01 0.172D+00
 Coeff-Com:  0.308D+00 0.473D+00
 Coeff-En:   0.000D+00 0.000D+00 0.000D+00 0.000D+00 0.000D+00 0.000D+00
 Coeff-En:   0.000D+00 0.100D+01
 Coeff:      0.265D-03-0.211D-02 0.101D-02 0.163D-02 0.464D-01 0.172D+00
 Coeff:      0.308D+00 0.474D+00
 Gap=     0.148 Goal=   None    Shift=    0.000
 RMSDP=1.27D-05 MaxDP=6.06D-04 DE=-1.06D-04 OVMax= 8.41D-04

 Cycle   9  Pass 0  IDiag  1:
 RMSU=  5.96D-06    CP:  1.02D+00  6.06D-01  5.63D-01  5.88D-01  5.01D-01
                    CP:  6.22D-01  6.09D-01  5.34D-01
 E= -1973.20830004705     Delta-E=       -0.000008469576 Rises=F Damp=F
 DIIS: error= 3.26D-05 at cycle   9 NSaved=   9.
 NSaved= 9 IEnMin= 9 EnMin= -1973.20830004705     IErMin= 9 ErrMin= 3.26D-05
 ErrMax= 3.26D-05  0.00D+00 EMaxC= 1.00D-01 BMatC= 5.44D-07 BMatP= 9.55D-06
 IDIUse=1 WtCom= 1.00D+00 WtEn= 0.00D+00
 Coeff-Com:  0.159D-03-0.647D-03-0.196D-03-0.814D-03 0.136D-01 0.586D-01
 Coeff-Com:  0.112D+00 0.242D+00 0.575D+00
 Coeff:      0.159D-03-0.647D-03-0.196D-03-0.814D-03 0.136D-01 0.586D-01
 Coeff:      0.112D+00 0.242D+00 0.575D+00
 Gap=     0.148 Goal=   None    Shift=    0.000
 RMSDP=3.77D-06 MaxDP=2.21D-04 DE=-8.47D-06 OVMax= 2.50D-04

 Initial convergence to 1.0D-05 achieved.  Increase integral accuracy.
 Cycle  10  Pass 1  IDiag  1:
 E= -1973.20831240414     Delta-E=       -0.000012357090 Rises=F Damp=F
 DIIS: error= 4.60D-05 at cycle   1 NSaved=   1.
 NSaved= 1 IEnMin= 1 EnMin= -1973.20831240414     IErMin= 1 ErrMin= 4.60D-05
 ErrMax= 4.60D-05  0.00D+00 EMaxC= 1.00D-01 BMatC= 8.59D-07 BMatP= 8.59D-07
 IDIUse=1 WtCom= 1.00D+00 WtEn= 0.00D+00
 Coeff-Com:  0.100D+01
 Coeff:      0.100D+01
 Gap=     0.148 Goal=   None    Shift=    0.000
 RMSDP=3.77D-06 MaxDP=2.21D-04 DE=-1.24D-05 OVMax= 3.77D-04

 Cycle  11  Pass 1  IDiag  1:
 RMSU=  4.51D-05    CP:  1.00D+00
 E= -1973.20831246682     Delta-E=       -0.000000062680 Rises=F Damp=F
 DIIS: error= 5.24D-05 at cycle   2 NSaved=   2.
 NSaved= 2 IEnMin= 2 EnMin= -1973.20831246682     IErMin= 1 ErrMin= 4.60D-05
 ErrMax= 5.24D-05  0.00D+00 EMaxC= 1.00D-01 BMatC= 1.05D-06 BMatP= 8.59D-07
 IDIUse=1 WtCom= 1.00D+00 WtEn= 0.00D+00
 Coeff-Com:  0.535D+00 0.465D+00
 Coeff:      0.535D+00 0.465D+00
 Gap=     0.148 Goal=   None    Shift=    0.000
 RMSDP=5.82D-06 MaxDP=3.20D-04 DE=-6.27D-08 OVMax= 3.82D-04

 Cycle  12  Pass 1  IDiag  1:
 RMSU=  5.75D-06    CP:  1.00D+00  9.92D-01
 E= -1973.20831307091     Delta-E=       -0.000000604098 Rises=F Damp=F
 DIIS: error= 3.64D-05 at cycle   3 NSaved=   3.
 NSaved= 3 IEnMin= 3 EnMin= -1973.20831307091     IErMin= 3 ErrMin= 3.64D-05
 ErrMax= 3.64D-05  0.00D+00 EMaxC= 1.00D-01 BMatC= 4.34D-07 BMatP= 8.59D-07
 IDIUse=1 WtCom= 1.00D+00 WtEn= 0.00D+00
 Coeff-Com:  0.233D-01 0.386D+00 0.591D+00
 Coeff:      0.233D-01 0.386D+00 0.591D+00
 Gap=     0.148 Goal=   None    Shift=    0.000
 RMSDP=1.98D-06 MaxDP=7.64D-05 DE=-6.04D-07 OVMax= 1.38D-04

 Cycle  13  Pass 1  IDiag  1:
 RMSU=  9.24D-07    CP:  1.00D+00  1.00D+00  7.11D-01
 E= -1973.20831341633     Delta-E=       -0.000000345413 Rises=F Damp=F
 DIIS: error= 7.02D-06 at cycle   4 NSaved=   4.
 NSaved= 4 IEnMin= 4 EnMin= -1973.20831341633     IErMin= 4 ErrMin= 7.02D-06
 ErrMax= 7.02D-06  0.00D+00 EMaxC= 1.00D-01 BMatC= 3.25D-08 BMatP= 4.34D-07
 IDIUse=1 WtCom= 1.00D+00 WtEn= 0.00D+00
 Coeff-Com: -0.448D-02 0.245D+00 0.398D+00 0.362D+00
 Coeff:     -0.448D-02 0.245D+00 0.398D+00 0.362D+00
 Gap=     0.148 Goal=   None    Shift=    0.000
 RMSDP=6.10D-07 MaxDP=3.34D-05 DE=-3.45D-07 OVMax= 3.97D-05

 Cycle  14  Pass 1  IDiag  1:
 RMSU=  2.08D-07    CP:  1.00D+00  1.00D+00  6.66D-01  4.57D-01
 E= -1973.20831344362     Delta-E=       -0.000000027298 Rises=F Damp=F
 DIIS: error= 1.05D-06 at cycle   5 NSaved=   5.
 NSaved= 5 IEnMin= 5 EnMin= -1973.20831344362     IErMin= 5 ErrMin= 1.05D-06
 ErrMax= 1.05D-06  0.00D+00 EMaxC= 1.00D-01 BMatC= 6.04D-10 BMatP= 3.25D-08
 IDIUse=1 WtCom= 1.00D+00 WtEn= 0.00D+00
 Coeff-Com: -0.339D-02 0.130D+00 0.211D+00 0.212D+00 0.451D+00
 Coeff:     -0.339D-02 0.130D+00 0.211D+00 0.212D+00 0.451D+00
 Gap=     0.148 Goal=   None    Shift=    0.000
 RMSDP=8.95D-08 MaxDP=4.45D-06 DE=-2.73D-08 OVMax= 6.81D-06

 Cycle  15  Pass 1  IDiag  1:
 RMSU=  5.76D-08    CP:  1.00D+00  1.00D+00  6.69D-01  4.68D-01  6.90D-01
 E= -1973.20831344418     Delta-E=       -0.000000000550 Rises=F Damp=F
 DIIS: error= 2.16D-07 at cycle   6 NSaved=   6.
 NSaved= 6 IEnMin= 6 EnMin= -1973.20831344418     IErMin= 6 ErrMin= 2.16D-07
 ErrMax= 2.16D-07  0.00D+00 EMaxC= 1.00D-01 BMatC= 2.45D-11 BMatP= 6.04D-10
 IDIUse=1 WtCom= 1.00D+00 WtEn= 0.00D+00
 Coeff-Com: -0.152D-02 0.551D-01 0.895D-01 0.913D-01 0.240D+00 0.525D+00
 Coeff:     -0.152D-02 0.551D-01 0.895D-01 0.913D-01 0.240D+00 0.525D+00
 Gap=     0.148 Goal=   None    Shift=    0.000
 RMSDP=2.93D-08 MaxDP=1.48D-06 DE=-5.50D-10 OVMax= 2.13D-06

 Cycle  16  Pass 1  IDiag  1:
 RMSU=  2.17D-08    CP:  1.00D+00  1.00D+00  6.67D-01  4.55D-01  6.86D-01
                    CP:  9.26D-01
 E= -1973.20831344421     Delta-E=       -0.000000000035 Rises=F Damp=F
 DIIS: error= 1.20D-07 at cycle   7 NSaved=   7.
 NSaved= 7 IEnMin= 7 EnMin= -1973.20831344421     IErMin= 7 ErrMin= 1.20D-07
 ErrMax= 1.20D-07  0.00D+00 EMaxC= 1.00D-01 BMatC= 7.60D-12 BMatP= 2.45D-11
 IDIUse=1 WtCom= 1.00D+00 WtEn= 0.00D+00
 Coeff-Com: -0.306D-03 0.954D-02 0.153D-01 0.160D-01 0.643D-01 0.368D+00
 Coeff-Com:  0.527D+00
 Coeff:     -0.306D-03 0.954D-02 0.153D-01 0.160D-01 0.643D-01 0.368D+00
 Coeff:      0.527D+00
 Gap=     0.148 Goal=   None    Shift=    0.000
 RMSDP=1.08D-08 MaxDP=2.82D-07 DE=-3.55D-11 OVMax= 1.08D-06

 Cycle  17  Pass 1  IDiag  1:
 RMSU=  8.45D-09    CP:  1.00D+00  1.00D+00  6.67D-01  4.56D-01  6.97D-01
                    CP:  9.59D-01  7.32D-01
 E= -1973.20831344421     Delta-E=        0.000000000000 Rises=F Damp=F
 DIIS: error= 5.76D-08 at cycle   8 NSaved=   8.
 NSaved= 8 IEnMin= 7 EnMin= -1973.20831344421     IErMin= 8 ErrMin= 5.76D-08
 ErrMax= 5.76D-08  0.00D+00 EMaxC= 1.00D-01 BMatC= 1.33D-12 BMatP= 7.60D-12
 IDIUse=1 WtCom= 1.00D+00 WtEn= 0.00D+00
 Coeff-Com: -0.548D-05-0.951D-03-0.164D-02-0.149D-02 0.120D-01 0.185D+00
 Coeff-Com:  0.362D+00 0.445D+00
 Coeff:     -0.548D-05-0.951D-03-0.164D-02-0.149D-02 0.120D-01 0.185D+00
 Coeff:      0.362D+00 0.445D+00
 Gap=     0.148 Goal=   None    Shift=    0.000
 RMSDP=4.42D-09 MaxDP=2.30D-07 DE= 0.00D+00 OVMax= 3.86D-07

 SCF Done:  E(RB3LYP) =  -1973.20831344     A.U. after   17 cycles
            NFock= 17  Conv=0.44D-08     -V/T= 2.0025
 KE= 1.968341065671D+03 PE=-1.004615963163D+04 EE= 3.403978767518D+03
 Leave Link  502 at Wed Jun  4 15:52:04 2025, MaxMem=  2147483648 cpu:             303.7 elap:              19.0
 (Enter /Apps/Gaussian/G16//g16/l601.exe)
 Copying SCF densities to generalized density rwf, IOpCl= 0 IROHF=0.

 **********************************************************************

            Population analysis using the SCF density.

 **********************************************************************

 Orbital symmetries:
       Occupied  (A) (A) (A) (A) (A) (A) (A) (A) (A) (A) (A) (A)
                 (A) (A) (A) (A) (A) (A) (A) (A) (A) (A) (A) (A)
                 (A) (A) (A) (A) (A) (A) (A) (A) (A) (A) (A) (A)
                 (A) (A) (A) (A) (A) (A) (A) (A) (A) (A) (A) (A)
                 (A) (A) (A) (A) (A) (A) (A) (A) (A) (A) (A) (A)
                 (A) (A) (A) (A) (A) (A) (A) (A) (A) (A) (A) (A)
                 (A) (A) (A) (A) (A) (A) (A) (A) (A) (A) (A) (A)
                 (A) (A) (A) (A) (A) (A) (A) (A) (A) (A) (A) (A)
                 (A) (A) (A) (A)
       Virtual   (A) (A) (A) (A) (A) (A) (A) (A) (A) (A) (A) (A)
                 (A) (A) (A) (A) (A) (A) (A) (A) (A) (A) (A) (A)
                 (A) (A) (A) (A) (A) (A) (A) (A) (A) (A) (A) (A)
                 (A) (A) (A) (A) (A) (A) (A) (A) (A) (A) (A) (A)
                 (A) (A) (A) (A) (A) (A) (A) (A) (A) (A) (A) (A)
                 (A) (A) (A) (A) (A) (A) (A) (A) (A) (A) (A) (A)
                 (A) (A) (A) (A) (A) (A) (A) (A) (A) (A) (A) (A)
                 (A) (A) (A) (A) (A) (A) (A) (A) (A) (A) (A) (A)
                 (A) (A) (A) (A) (A) (A) (A) (A) (A) (A) (A) (A)
                 (A) (A) (A) (A) (A) (A) (A) (A) (A) (A) (A) (A)
                 (A) (A) (A) (A) (A) (A) (A) (A) (A) (A) (A) (A)
                 (A) (A) (A) (A) (A) (A) (A) (A) (A) (A) (A) (A)
                 (A) (A) (A) (A) (A) (A) (A) (A) (A) (A) (A) (A)
                 (A) (A) (A) (A) (A) (A) (A) (A) (A) (A) (A) (A)
                 (A) (A) (A) (A) (A) (A) (A) (A) (A) (A) (A) (A)
                 (A) (A) (A) (A) (A) (A) (A) (A) (A) (A) (A) (A)
                 (A) (A) (A) (A) (A) (A) (A) (A) (A) (A) (A) (A)
                 (A) (A) (A) (A) (A) (A) (A) (A) (A) (A) (A) (A)
                 (A) (A) (A) (A) (A) (A) (A) (A) (A) (A) (A) (A)
                 (A) (A) (A) (A) (A) (A) (A) (A) (A) (A) (A) (A)
                 (A) (A) (A) (A) (A) (A) (A) (A) (A) (A) (A) (A)
                 (A) (A) (A) (A) (A) (A) (A) (A) (A) (A) (A) (A)
                 (A) (A) (A) (A) (A) (A) (A) (A) (A) (A) (A) (A)
                 (A) (A) (A) (A) (A) (A) (A) (A) (A) (A) (A) (A)
                 (A) (A) (A) (A) (A) (A) (A) (A) (A) (A)
 The electronic state is 1-A.
 Alpha  occ. eigenvalues -- -101.56231-101.55343 -19.17833 -19.16577 -19.13154
 Alpha  occ. eigenvalues --  -19.11444 -14.35335 -10.33967 -10.32667 -10.25726
 Alpha  occ. eigenvalues --  -10.24924 -10.24743 -10.23717 -10.23561 -10.22475
 Alpha  occ. eigenvalues --  -10.22021 -10.21311 -10.21246 -10.20381 -10.18888
 Alpha  occ. eigenvalues --  -10.18267 -10.18183 -10.17336 -10.16315 -10.15839
 Alpha  occ. eigenvalues --   -9.48067  -9.46902  -7.24541  -7.23472  -7.23438
 Alpha  occ. eigenvalues --   -7.23385  -7.22289  -7.22252  -1.11748  -1.10174
 Alpha  occ. eigenvalues --   -1.03790  -1.02172  -0.96184  -0.92498  -0.87285
 Alpha  occ. eigenvalues --   -0.85216  -0.83206  -0.82634  -0.78658  -0.76806
 Alpha  occ. eigenvalues --   -0.73728  -0.73569  -0.72546  -0.71204  -0.67468
 Alpha  occ. eigenvalues --   -0.66425  -0.62266  -0.61495  -0.61127  -0.60269
 Alpha  occ. eigenvalues --   -0.57681  -0.55025  -0.52879  -0.52305  -0.51362
 Alpha  occ. eigenvalues --   -0.51044  -0.50641  -0.49039  -0.48701  -0.47951
 Alpha  occ. eigenvalues --   -0.47260  -0.46949  -0.46157  -0.44700  -0.44405
 Alpha  occ. eigenvalues --   -0.43822  -0.43632  -0.43223  -0.42812  -0.42392
 Alpha  occ. eigenvalues --   -0.41960  -0.41367  -0.40867  -0.39998  -0.39452
 Alpha  occ. eigenvalues --   -0.38983  -0.38592  -0.37846  -0.37282  -0.36869
 Alpha  occ. eigenvalues --   -0.35130  -0.34862  -0.34413  -0.33382  -0.33183
 Alpha  occ. eigenvalues --   -0.31563  -0.31221  -0.30254  -0.29492  -0.29230
 Alpha  occ. eigenvalues --   -0.28555  -0.26208  -0.24374  -0.23268  -0.22522
 Alpha virt. eigenvalues --   -0.07746  -0.05531  -0.01482  -0.01029  -0.00342
 Alpha virt. eigenvalues --    0.02118   0.03134   0.03739   0.04226   0.06002
 Alpha virt. eigenvalues --    0.06297   0.06930   0.07658   0.07789   0.08255
 Alpha virt. eigenvalues --    0.08612   0.09515   0.10391   0.10517   0.10609
 Alpha virt. eigenvalues --    0.10977   0.11794   0.11953   0.12528   0.12918
 Alpha virt. eigenvalues --    0.13320   0.13488   0.13972   0.14433   0.15780
 Alpha virt. eigenvalues --    0.16321   0.18128   0.18473   0.18917   0.20049
 Alpha virt. eigenvalues --    0.20755   0.21972   0.23259   0.24147   0.24432
 Alpha virt. eigenvalues --    0.25120   0.26444   0.27286   0.27705   0.28075
 Alpha virt. eigenvalues --    0.28681   0.29233   0.29718   0.30053   0.30486
 Alpha virt. eigenvalues --    0.31018   0.31792   0.32046   0.32212   0.32925
 Alpha virt. eigenvalues --    0.33116   0.33896   0.34502   0.35172   0.36096
 Alpha virt. eigenvalues --    0.36637   0.37212   0.38114   0.38857   0.39384
 Alpha virt. eigenvalues --    0.40507   0.41067   0.42155   0.42742   0.43309
 Alpha virt. eigenvalues --    0.43604   0.43713   0.44591   0.45094   0.45519
 Alpha virt. eigenvalues --    0.46494   0.47082   0.48044   0.48781   0.49105
 Alpha virt. eigenvalues --    0.50047   0.50513   0.51125   0.51809   0.52793
 Alpha virt. eigenvalues --    0.53362   0.53621   0.54087   0.54576   0.54910
 Alpha virt. eigenvalues --    0.55686   0.55883   0.56357   0.57328   0.57707
 Alpha virt. eigenvalues --    0.57849   0.58420   0.59281   0.59428   0.59747
 Alpha virt. eigenvalues --    0.60103   0.60287   0.60917   0.61076   0.61498
 Alpha virt. eigenvalues --    0.61838   0.62244   0.62671   0.63221   0.63896
 Alpha virt. eigenvalues --    0.64590   0.65089   0.65307   0.66743   0.67093
 Alpha virt. eigenvalues --    0.67470   0.68141   0.69421   0.70333   0.71181
 Alpha virt. eigenvalues --    0.71921   0.73722   0.73890   0.75413   0.75511
 Alpha virt. eigenvalues --    0.77667   0.78459   0.78835   0.79821   0.80551
 Alpha virt. eigenvalues --    0.80802   0.81759   0.82550   0.84812   0.86018
 Alpha virt. eigenvalues --    0.87680   0.89041   0.90495   0.90798   0.91473
 Alpha virt. eigenvalues --    0.92790   0.94353   0.95018   0.96487   0.96966
 Alpha virt. eigenvalues --    0.98907   1.00386   1.01546   1.02366   1.04766
 Alpha virt. eigenvalues --    1.05455   1.07033   1.07408   1.09527   1.11784
 Alpha virt. eigenvalues --    1.12079   1.14590   1.17673   1.19573   1.21315
 Alpha virt. eigenvalues --    1.23974   1.27696   1.29557   1.36006   1.38473
 Alpha virt. eigenvalues --    1.40745   1.48712   1.60696   1.64924   1.75953
 Alpha virt. eigenvalues --    1.78025   2.11163   2.18089   2.19602   2.20316
 Alpha virt. eigenvalues --    2.21598   2.22064   2.22353   2.23435   2.24015
 Alpha virt. eigenvalues --    2.24733   2.25746   2.26585   2.26882   2.27250
 Alpha virt. eigenvalues --    2.28072   2.28293   2.30170   2.30421   2.31531
 Alpha virt. eigenvalues --    2.33867   2.34425   2.35246   2.40036   2.45047
 Alpha virt. eigenvalues --    2.50873   2.52233   2.53712   2.59076   2.60283
 Alpha virt. eigenvalues --    2.61391   2.62043   2.65281   2.65846   2.67628
 Alpha virt. eigenvalues --    2.70303   2.72733   2.74859   2.75661   2.76707
 Alpha virt. eigenvalues --    2.78196   2.79304   2.79872   2.81765   2.82641
 Alpha virt. eigenvalues --    2.83074   2.83286   2.83716   2.84856   2.86253
 Alpha virt. eigenvalues --    2.87462   2.88741   2.90447   2.91728   2.93944
 Alpha virt. eigenvalues --    2.95066   2.96576   2.97850   2.98637   2.99569
 Alpha virt. eigenvalues --    3.00846   3.02609   3.02993   3.04033   3.05499
 Alpha virt. eigenvalues --    3.06515   3.07578   3.08908   3.09596   3.11018
 Alpha virt. eigenvalues --    3.16279   3.16807   3.21353   3.21940   3.24458
 Alpha virt. eigenvalues --    3.27671   3.29864   3.30430   3.34347   3.40831
 Alpha virt. eigenvalues --    3.82641   3.99441   4.10209   4.83533   4.86269
 Alpha virt. eigenvalues --    4.89820   4.91680   4.95187   4.95359   4.98091
 Alpha virt. eigenvalues --    5.05060   5.06602   5.10733   5.13563   5.14619
 Alpha virt. eigenvalues --    9.58003   9.72898  23.10341  23.19438  23.26671
 Alpha virt. eigenvalues --   23.33411  23.34642  23.36573  23.37988  23.39315
 Alpha virt. eigenvalues --   23.41283  23.48620  23.51736  23.53871  23.61311
 Alpha virt. eigenvalues --   23.62153  23.66132  23.66900  23.72558  23.86405
 Alpha virt. eigenvalues --   25.41801  25.70414  25.74501  25.96493  26.13252
 Alpha virt. eigenvalues --   26.47137  35.44324  49.82696  49.85418  49.91558
 Alpha virt. eigenvalues --   49.94108 215.54037 215.72181
          Condensed to atoms (all electrons):
               1          2          3          4          5          6
     1  C    5.022414   0.451137  -0.083048  -0.057441  -0.048234   0.445718
     2  C    0.451137   5.608709   0.179510  -0.155178  -0.018713  -0.015711
     3  C   -0.083048   0.179510   6.247070   0.068884  -0.186972  -0.044626
     4  C   -0.057441  -0.155178   0.068884   5.894915   0.351874  -0.025230
     5  C   -0.048234  -0.018713  -0.186972   0.351874   5.228628   0.469864
     6  C    0.445718  -0.015711  -0.044626  -0.025230   0.469864   5.006294
     7  H    0.386553  -0.059003   0.010303  -0.000326   0.008340  -0.043468
     8  H    0.009726  -0.000898   0.011327  -0.056103   0.392205  -0.042484
     9  H   -0.043501   0.009815  -0.000100   0.010620  -0.052221   0.388334
    10  C   -0.004057   0.129756  -0.105251   0.001389   0.003066   0.006169
    11  C    0.006970  -0.028059  -0.006552  -0.000340  -0.000029  -0.000765
    12  C   -0.009282  -0.069152   0.000752   0.000008  -0.000204  -0.000040
    13  C   -0.000817   0.013421   0.002562  -0.000592   0.000001   0.000018
    14  C   -0.000258   0.009286   0.002630   0.000055  -0.000003   0.000005
    15  C   -0.008987  -0.021178  -0.004007  -0.000029   0.000180  -0.000181
    16  O   -0.038622  -0.022825   0.000395   0.000311  -0.000386  -0.001580
    17  O   -0.000058  -0.000859  -0.000002   0.000000   0.000001  -0.000011
    18  C    0.003007   0.010294  -0.058000  -0.000678   0.000201  -0.000139
    19  O    0.001038  -0.004270  -0.016220   0.001601   0.000275  -0.000227
    20  O   -0.000002   0.000074  -0.001222  -0.000031   0.000002  -0.000001
    21  C   -0.000048  -0.000099  -0.000004  -0.000000   0.000001  -0.000013
    22  H    0.000115   0.000122  -0.000010  -0.000000  -0.000005   0.000053
    23  H    0.000008  -0.000023   0.000001  -0.000000   0.000000  -0.000006
    24  C   -0.000001   0.000283   0.001286   0.000065  -0.000006  -0.000001
    25  H   -0.000000   0.000002   0.000025   0.000000  -0.000000   0.000000
    26  H    0.000003   0.000130   0.000287  -0.000091  -0.000004  -0.000001
    27  H    0.000013  -0.000114  -0.002249   0.000110  -0.000007   0.000000
    28  N    0.000001   0.002564  -0.000285   0.000003  -0.000000   0.000000
    29  H   -0.000016   0.000469   0.000121   0.000027  -0.000000   0.000000
[...]
 0000262,0.00000250,0.00000769,-0.00000376,0.00000372,0.00002564,-0.000
 02273,-0.00007494,0.00076434,0.00129602,-0.00047701,0.01872966,0.00894
 134,0.01270756,0.00000481,-0.00004770,0.00000318,-0.00003192,0.0000699
 2,0.00000865,0.00007051,-0.00000804,-0.00000065,0.00005320,0.00003175,
 0.00000631,-0.00001646,-0.00003157,-0.00000513,0.00000311,0.00002144,-
 0.00000462,-0.00001536,0.00000627,-0.00000602,-0.00000030,-0.00000485,
 0.00000480,0.00000382,-0.00000806,0.00000629,-0.00046128,0.00021566,0.
 00021588,0.00019158,-0.00012612,0.00020789,0.00046660,-0.00049256,0.00
 153578,-0.00010173,0.00005677,-0.00022013,0.00069693,-0.00037356,-0.00
 002928,-0.00787297,0.00273224,0.00042499,0.00290289,-0.00037314,-0.001
 46907,0.00646367,-0.00698633,0.03604552,-0.00009978,0.00002674,-0.0001
 8451,0.00006413,-0.00002503,0.00006401,-0.00001574,0.00002841,0.000135
 74,-0.10763990,0.01497554,-0.06147198,-0.00257120,0.00026709,-0.009245
 61,-0.00719733,0.00952658,-0.02458418,-0.00001749,0.00000078,-0.000040
 85,-0.00000157,0.00000159,0.00000825,0.00000546,-0.00000054,0.00000582
 ,0.00000455,-0.00000143,0.00000528,-0.00031362,0.00009943,0.00036055,-
 0.00000104,-0.00000955,0.00004802,0.00014138,0.00007673,0.00000311,-0.
 00004294,-0.00001374,0.00007017,0.00001782,-0.00003294,-0.00001329,-0.
 00002885,0.00000061,-0.00003445,-0.00000024,-0.00000181,0.00001580,-0.
 00000096,0.00000174,0.00000433,-0.00000304,0.00000155,0.00000495,-0.00
 000601,0.00000241,-0.00000578,0.00001405,-0.00002143,-0.00003864,-0.00
 003705,0.00000872,-0.00000468,-0.00003813,-0.00004294,-0.00001060,0.56
 277062,-0.00001025,0.00000349,-0.00000077,0.00000712,-0.00001079,-0.00
 000423,0.00002802,-0.00001591,0.00000646,0.00000690,0.00001303,-0.0000
 0080,0.00000365,0.00000952,0.00000349,-0.00000661,-0.00000168,0.000005
 07,0.00000099,-0.00000391,-0.00000280,0.00000117,0.00000138,-0.0000017
 5,-0.00000290,0.00000223,-0.00000685,0.00011408,-0.00003832,-0.0000419
 1,-0.00003492,0.00001644,-0.00004428,-0.00005471,0.00003056,-0.0003602
 8,0.00001823,0.00001155,0.00004568,-0.00032343,0.00007105,-0.00003966,
 0.00197594,-0.00057988,-0.00002678,-0.00045390,0.00110174,0.00066734,-
 0.00121660,0.00269863,-0.00593594,0.00001312,-0.00000027,0.00003519,-0
 .00000519,0.00000301,-0.00001166,0.00000546,-0.00001099,-0.00002861,0.
 01322652,-0.09814380,0.03084034,0.01267152,-0.00478861,0.03091710,-0.0
 0697876,0.00637420,-0.01788578,0.00000361,0.00000083,0.00000711,0.0000
 0060,0.00000028,-0.00000208,-0.00000181,0.00000047,-0.00000112,-0.0000
 0073,-0.00000044,-0.00000084,0.00011904,-0.00004715,-0.00007785,0.0000
 1019,0.00001969,-0.00002092,0.00008011,0.00022432,0.00008563,-0.000085
 18,0.00003192,0.00007306,0.00004237,-0.00012194,-0.00017900,-0.0000164
 7,-0.00004966,0.00001928,0.00000038,-0.00000099,-0.00000243,-0.0000009
 4,0.00000051,-0.00000380,0.00000134,-0.00000154,0.00000083,0.00000468,
 0.00000171,0.00000130,-0.00001075,0.00000251,0.00001584,-0.00001857,0.
 00000727,-0.00001163,-0.00000774,-0.00000435,-0.00000257,0.00811381,0.
 56890403,-0.00000718,0.00003172,-0.00000877,0.00002160,-0.00004116,-0.
 00001558,-0.00000225,-0.00000421,0.00000135,-0.00003542,-0.00001642,-0
 .00000375,0.00001345,0.00002350,0.00000463,-0.00000299,-0.00001327,0.0
 0000591,0.00000930,-0.00000687,0.00000320,0.00000039,0.00000402,-0.000
 00242,-0.00000540,0.00000618,-0.00000656,0.00027893,-0.00010848,-0.000
 14633,-0.00012922,0.00008583,-0.00014400,-0.00051550,0.00045436,-0.001
 18952,0.00005231,-0.00002401,0.00012272,-0.00014267,0.00002629,0.00015
 530,0.00480197,-0.00183148,0.00028971,-0.00135172,0.00052907,0.0004644
 2,-0.00286643,0.00708812,-0.04014774,0.00005861,-0.00001311,0.00013664
 ,-0.00004163,0.00001435,-0.00005311,0.00001422,-0.00002220,-0.00010695
 ,-0.04978185,0.02702223,-0.16323735,-0.00176977,-0.00019548,-0.0009112
 3,-0.00376238,0.00405071,-0.00755407,0.00001318,-0.00000023,0.00003585
 ,0.00000205,-0.00000153,-0.00000607,-0.00000466,0.00000021,-0.00000413
 ,-0.00000353,0.00000162,-0.00000388,0.00009545,-0.00000711,-0.00022029
 ,-0.00000823,0.00000104,0.00000283,0.00001690,0.00002010,-0.00003852,-
 0.00006147,-0.00005961,0.00005812,0.00002087,0.00006345,0.00004776,0.0
 0001247,-0.00000670,-0.00003946,0.00000009,-0.00000132,-0.00001090,0.0
 0000034,-0.00000218,-0.00000333,0.00000207,0.00000010,-0.00000314,0.00
 000244,-0.00000051,0.00000428,-0.00000230,-0.00000099,0.00002766,-0.00
 000226,0.00000371,-0.00000812,0.00001820,0.00002406,0.00000266,-0.0282
 0763,0.01917499,0.50409236,0.00000002,-0.00000285,0.00000246,0.0000009
 7,-0.00001099,0.00000728,-0.00001989,0.00000726,0.00000200,0.00002691,
 0.00001912,0.00000148,-0.00000415,-0.00000662,-0.00000137,-0.00000390,
 0.00000353,-0.00000116,-0.00000360,0.00000203,-0.00000538,0.00000032,-
 0.00000274,0.00000083,0.00000314,-0.00000131,0.00000064,0.00007130,-0.
 00000925,-0.00006245,0.00002884,-0.00001382,0.00002991,-0.00015377,0.0
 0011023,-0.00023410,-0.00005378,0.00002162,-0.00007857,-0.00009896,0.0
 0007697,-0.00011882,0.00125068,-0.00017444,-0.00073532,-0.00007030,-0.
 00008796,0.00034578,0.00008308,0.00081718,-0.00384959,-0.00001030,-0.0
 0000263,-0.00009184,0.00002255,-0.00000945,0.00003053,-0.00001270,0.00
 001073,0.00005050,0.00825297,-0.00168634,-0.01063003,0.00053935,-0.000
 17808,0.00075675,0.00044666,-0.00042685,0.00082951,-0.00000469,-0.0000
 0037,-0.00002405,-0.00000204,0.00000127,0.00000206,0.00000245,-0.00000
 008,0.00000193,0.00000210,-0.00000136,0.00000200,0.00003230,-0.0000300
 5,0.00015334,0.00001313,0.00000360,-0.00002853,0.00002950,-0.00006416,
 0.00003185,0.00010581,0.00008157,-0.00007853,0.00001202,-0.00008941,-0
 .00008510,-0.00002431,0.00001448,0.00005152,-0.00000036,-0.00000098,0.
 00000743,0.00000065,0.00000146,0.00000057,-0.00000069,-0.00000123,0.00
 000227,0.00000308,-0.00000093,-0.00000260,0.00000071,-0.00000387,0.000
 00326,0.00001293,-0.00000628,0.00000742,-0.00001230,-0.00001580,-0.000
 00125,-0.16589521,0.02103660,0.12565870,0.17993225,0.00000383,-0.00000
 265,0.00000086,-0.00000424,0.00000336,0.00000611,-0.00000013,0.0000026
 6,-0.00000188,0.00000488,0.00000116,-0.00000039,-0.00000276,-0.0000044
 4,-0.00000234,0.00000195,0.00000278,-0.00000250,-0.00000159,0.00000089
 ,0.00000004,-0.00000057,-0.00000114,0.00000282,0.00000076,-0.00000021,
 0.00000340,-0.00005215,-0.00000026,0.00001960,0.00000580,-0.00000744,0
 .00000786,0.00004581,-0.00004064,0.00016016,0.00000169,-0.00000162,-0.
 00000377,0.00012278,-0.00003072,0.00003010,-0.00060038,0.00061443,0.00
 008133,0.00011151,-0.00015487,-0.00011939,0.00068487,0.00025103,0.0025
 2362,-0.00000533,0.00000368,0.00000481,-0.00000076,-0.00000344,-0.0000
 0214,0.00000107,-0.00000108,-0.00000125,-0.00649665,-0.00009782,0.0060
 0732,-0.00020293,-0.00010997,-0.00054609,-0.00010075,0.00016600,-0.000
 22650,0.00000060,0.00000138,0.00000200,0.00000034,0.00000005,0.0000000
 9,-0.00000049,-0.00000006,-0.00000010,-0.00000008,-0.00000013,-0.00000
 001,-0.00004277,0.00002264,-0.00000128,-0.00000259,-0.00000004,0.00001
 296,-0.00004638,-0.00006328,-0.00003498,-0.00000492,-0.00002904,0.0000
 0921,-0.00000593,0.00006420,0.00006334,0.00001348,0.00002016,-0.000015
 13,0.,0.00000002,-0.00000058,-0.00000004,-0.00000030,-0.00000020,-0.00
 000002,0.00000034,-0.00000002,-0.00000121,0.00000051,0.00000011,0.0000
 0094,0.00000162,-0.00001077,0.00000023,-0.00000086,0.00000079,-0.00000
 295,-0.00000392,-0.00000164,0.02137683,-0.05181497,-0.02212049,-0.0239
 1174,0.05237709,-0.00000538,0.00002787,-0.00000528,0.00001560,-0.00002
 365,-0.00000042,-0.00001906,-0.00000822,-0.00000307,-0.00005002,-0.000
 02971,-0.00000552,0.00001431,0.00002319,0.00000518,0.00000706,-0.00001
 922,0.00000380,0.00001541,-0.00000731,0.00001247,0.00000124,0.00000591
 ,-0.00000273,-0.00000680,0.00000686,-0.00000594,0.00017820,-0.00012259
 ,-0.00005013,-0.00013632,0.00008466,-0.00014499,-0.00000815,0.00013225
 ,-0.00055440,0.00010970,-0.00005511,0.00021303,-0.00042465,0.00018669,
 0.00011750,0.00227932,-0.00101283,0.00143933,-0.00093271,0.00030424,-0
 .00008111,-0.00313917,0.00231945,-0.00753289,0.00006717,-0.00001297,0.
 00020506,-0.00006094,0.00002242,-0.00007011,0.00002272,-0.00002870,-0.
 00013330,0.02307716,-0.00507294,-0.01911381,0.00000194,0.00080668,0.00
 095191,-0.00057563,-0.00088737,0.00074844,0.00001594,0.00000055,0.0000
 4990,0.00000310,-0.00000210,-0.00000693,-0.00000596,0.00000008,-0.0000
 0533,-0.00000456,0.00000231,-0.00000514,0.00019881,-0.00005539,-0.0003
 4967,-0.00000402,0.00000765,-0.00001437,-0.00003933,-0.00002649,0.0000
 1856,-0.00003266,0.00001203,-0.00001110,-0.00003065,0.00002613,0.00000
 489,0.00004263,-0.00001197,-0.00001236,0.00000186,0.00000169,-0.000015
 27,-0.00000041,-0.00000258,-0.00000269,0.00000291,0.00000036,-0.000004
 17,0.00000168,-0.00000048,0.00000524,-0.00000525,0.00001533,0.00003430
 ,0.00000528,0.00000329,-0.00000760,0.00002863,0.00003543,0.00000495,0.
 12345875,-0.02139831,-0.18370556,-0.13839263,0.02354507,0.20284540,0.0
 0000290,0.00000981,-0.00000167,-0.00000158,-0.00000334,-0.00000439,-0.
 00000519,-0.00000231,-0.00000378,-0.00002524,-0.00001716,-0.00000239,0
 .00000468,0.00000562,0.00000029,0.00000437,-0.00000686,-0.00000230,0.0
 0000439,-0.00000008,0.00000728,-0.00000052,0.00000186,0.00000085,-0.00
 000191,0.00000179,0.00000209,0.00001957,-0.00001092,0.00001298,-0.0000
 5228,0.00002533,-0.00005264,0.00011406,0.00003413,-0.00006204,0.000058
 88,-0.00002243,0.00009177,-0.00003787,0.00003752,0.00008299,-0.0002398
 2,-0.00011900,0.00032706,0.00000829,-0.00009692,-0.00029578,0.00062398
 ,-0.00128190,0.00042996,0.00002449,0.00000210,0.00009729,-0.00002913,0
 .00000439,-0.00003332,0.00001148,-0.00001535,-0.00005929,-0.00517622,0
 .01622555,0.00092115,0.00006081,0.00002146,-0.00272461,-0.00001855,0.0
 0004271,0.00074033,0.00000774,0.00000240,0.00002350,0.00000176,-0.0000
 0075,-0.00000290,-0.00000348,0.00000014,-0.00000277,-0.00000214,0.0000
 0053,-0.00000222,0.00002678,-0.00000614,-0.00017154,-0.00000526,0.0000
 0054,0.00001467,-0.00004783,-0.00000295,-0.00003718,-0.00005071,-0.000
 10012,0.00004314,0.00002433,0.00011009,0.00013141,0.00001895,-0.000007
 21,-0.00002580,0.00000171,0.00000102,-0.00000700,0.00000014,-0.0000013
 3,-0.00000282,0.00000112,0.00000020,-0.00000195,-0.00000097,0.00000120
 ,0.00000237,-0.00000480,0.00001183,0.00000453,0.00000268,0.00000057,-0
 .00000259,0.00001389,0.00001555,0.00000214,-0.07086181,0.06847191,-0.0
 0011311,-0.00687384,0.02239191,-0.00029523,0.07411430,-0.00000282,0.00
 000293,0.00000296,0.00000132,-0.00000836,-0.00001226,0.00001895,-0.000
 00443,0.00000436,-0.00000421,0.00000053,0.00000167,-0.00000223,0.00001
 037,0.00000246,-0.00000652,0.00000379,0.00000761,0.00000174,-0.0000042
 1,-0.00000899,0.00000058,0.00000158,-0.00000598,-0.00000132,0.00000230
 ,-0.00000718,-0.00003864,-0.00001937,0.00001697,-0.00000451,0.00001315
 ,-0.00000986,-0.00022068,0.00003552,0.00008353,0.00001069,-0.00001482,
 -0.00000655,0.00034346,-0.00013411,0.00011329,0.00029228,0.00002470,-0
 .00008250,-0.00044506,0.00016392,0.00005303,-0.00062568,0.00111642,-0.
 00005226,0.00002105,-0.00001050,-0.00000204,-0.00001701,0.00001392,0.0
 0000050,-0.00000957,0.00000858,0.00001034,0.00286041,-0.00897546,-0.00
 141428,0.00073453,0.00146459,0.00102993,0.00010352,0.00109163,0.000478
 10,-0.00000061,-0.00000313,-0.00000169,-0.00000075,-0.00000015,0.00000
 109,0.00000117,-0.00000062,-0.00000001,0.00000041,0.00000088,-0.000000
 33,-0.00012962,0.00007886,-0.00000364,-0.00001198,-0.00001811,0.000038
 90,-0.00008868,-0.00003938,-0.00011181,-0.00005769,-0.00012962,0.00005
 806,-0.00001050,0.00017758,0.00015647,0.00001253,0.00002247,-0.0000411
 4,0.00000014,0.00000023,0.00000132,0.00000004,-0.00000026,0.00000168,-
 0.00000086,0.00000085,-0.00000187,-0.00000677,0.00000046,-0.00000113,0
 .,0.00000056,-0.00002095,-0.00001475,0.00000627,0.00000088,0.00000010,
 0.00000299,0.00000254,0.06957463,-0.28639524,-0.00392281,-0.00010023,-
 0.00315746,0.00023205,-0.07894481,0.31274236,0.00000197,-0.00001061,-0
 .00000048,-0.00000877,0.00000755,0.00001207,-0.00000533,0.00000228,-0.
 00000103,0.00001523,0.00000921,0.00000169,-0.00000339,-0.00001153,-0.0
 0000130,0.00000162,0.00000216,-0.00000420,-0.00000389,0.00000505,0.000
 00185,-0.00000015,-0.00000199,0.00000128,0.00000283,-0.00000333,0.0000
 0372,-0.00002003,0.00003469,-0.00000169,0.00004498,-0.00003021,0.00005
 625,0.00004771,0.00001034,0.00012461,-0.00004204,0.00002555,-0.0000788
 9,-0.00000434,-0.00001050,-0.00013990,-0.00099507,0.00029181,-0.000711
 00,0.00072676,-0.00039404,-0.00030666,-0.00035970,-0.00099452,0.003680
 97,-0.00002350,0.00000465,-0.00008340,0.00002514,-0.00001308,0.0000283
 2,-0.00000920,0.00000933,0.00005067,-0.01074012,0.03468849,-0.00224940
 ,-0.00202094,0.00075236,-0.00509594,0.00072050,-0.00070454,0.00132970,
 -0.00000497,0.00000074,-0.00002110,-0.00000147,0.00000108,0.00000245,0
 .00000201,0.,0.00000188,0.00000188,-0.00000132,0.00000212,-0.00000350,
 -0.00002953,0.00013438,0.00001364,0.00000401,-0.00001672,0.00009715,0.
 00008712,-0.00001522,0.00005623,0.00001641,-0.00001679,0.00014558,-0.0
 0012837,-0.00012759,-0.00004104,-0.00000968,0.00004760,0.00000121,-0.0
 0000106,0.00000734,0.00000061,0.00000122,0.00000011,-0.00000072,-0.000
 00088,0.00000243,0.00000179,-0.00000004,-0.00000292,0.00000380,-0.0000
 0164,0.00000410,0.00000580,-0.00000390,0.00000475,-0.00000758,-0.00001
 122,-0.00000100,0.00198249,-0.00699387,-0.04901936,0.00639175,-0.02467
 739,-0.00025035,0.00158440,0.00406776,0.05324953,-0.00001163,0.0000043
 8,-0.00000374,0.00001374,-0.00000902,-0.00000364,-0.00002474,0.0000037
 3,-0.00000021,-0.00003416,-0.00002295,-0.00000241,0.00000677,0.0000133
 0,0.00000313,0.00000094,-0.00000508,0.00000066,0.00000645,-0.00000213,
 0.00000830,-0.00000007,0.00000348,-0.00000451,-0.00000138,-0.00000036,
 -0.00000120,0.00001972,-0.00005425,-0.00000921,-0.00003724,0.00003364,
 -0.00004546,0.00014971,-0.00010133,-0.00012971,0.00004129,-0.00002848,
 0.00008351,-0.00018770,0.00008458,0.00001949,-0.00013923,0.00015921,0.
 00041718,0.00024723,0.00004841,-0.00019733,0.00164443,0.00068907,0.000
 47334,0.00001042,-0.00000718,0.00007160,-0.00001179,0.00001520,-0.0000
 2285,0.00001236,-0.00000845,-0.00004584,-0.01317789,-0.00942967,-0.001
 88156,0.00019139,0.00042874,0.00034577,0.00052828,0.00140471,-0.002032
 66,0.00000276,-0.00000216,0.00001813,0.00000142,-0.00000129,-0.0000023
 8,-0.00000131,0.00000058,-0.00000135,-0.00000213,0.00000138,-0.0000018
 7,0.00008597,-0.00001444,-0.00013875,-0.00000300,-0.00000152,-0.000006
 89,-0.00001634,-0.00002519,0.00002673,-0.00000355,-0.00001806,0.000020
 86,-0.00000096,0.00001669,0.00000283,0.00002128,0.00000349,-0.00000286
 ,-0.00000001,0.00000109,-0.00000689,-0.00000046,-0.00000065,0.00000046
 ,0.00000081,0.00000010,-0.00000276,0.00000039,-0.00000147,0.00000275,0
 .00000321,0.00000172,0.00001812,0.00001867,-0.00000227,0.00000403,0.00
 002538,0.00002695,0.00000701,-0.21060323,-0.11672791,-0.04227590,-0.01
 762891,-0.01328190,-0.00537987,0.00828783,0.00676793,0.00242066,0.2305
 6527,0.00000045,-0.00000275,0.00000090,0.00000443,0.00000038,0.0000097
 3,-0.00002625,0.00000970,-0.00000277,0.00000748,0.00000049,-0.00000043
 ,0.00000023,-0.00000698,-0.00000150,0.00000254,-0.00000002,-0.00000374
 ,-0.00000192,0.00000204,0.00000176,-0.00000022,-0.00000151,0.00000271,
 0.00000195,-0.00000200,0.00000354,0.00002159,0.00000260,-0.00001701,0.
 00002256,-0.00000951,0.00002172,0.00008493,0.00001202,-0.00003576,-0.0
 0003277,0.00000618,-0.00002761,-0.00016824,0.00013839,-0.00008084,0.00
 014922,-0.00010731,0.00001027,0.00007658,-0.00017610,0.00016876,0.0001
 7781,0.00008945,-0.00111727,-0.00002126,0.00000285,-0.00003681,0.00002
 202,-0.00000620,0.00001304,0.00000163,0.00000273,0.00001599,0.00941131
 ,0.00641958,0.00363073,0.00030241,0.00094655,-0.00087637,0.00053418,0.
 00055156,0.00238382,-0.00000353,-0.00000086,-0.00000749,-0.00000030,0.
 00000002,0.00000046,0.00000124,0.00000034,0.00000117,0.00000039,-0.000
 00019,0.00000104,0.00007171,-0.00004706,0.00006990,0.00000538,0.000003
 68,-0.00003223,-0.00000086,-0.00013810,0.00005599,0.00011055,0.0001597
 9,-0.00012025,-0.00005407,-0.00009338,-0.00007025,0.00000106,0.0000147
 7,0.00003370,-0.00000130,0.00000051,0.00000105,0.00000003,0.00000056,0
 .00000186,-0.00000018,-0.00000027,0.00000093,0.00000381,-0.00000213,0.
 00000016,0.00000327,-0.00000504,0.00000710,0.00001897,-0.00000661,0.00
 000340,0.00000016,-0.00000247,-0.00000059,-0.11861591,-0.13749992,-0.0
 3022548,0.00463214,0.00199238,0.00097576,-0.02678055,-0.01807225,-0.00
 598856,0.13003736,0.14582408,-0.00000852,-0.00000991,-0.00000139,0.000
 00327,-0.00000157,0.00000558,-0.00003555,0.00001014,-0.00000029,0.0000
 1996,0.00001741,0.00000095,-0.00000266,-0.00000592,-0.00000042,-0.0000
 0181,0.00000312,-0.00000289,-0.00000183,0.00000281,0.00000130,0.000000
 53,-0.00000203,-0.00000032,0.00000386,-0.00000395,0.00000227,-0.000028
 06,0.00000687,-0.00000209,0.00005781,-0.00002122,0.00005645,0.00004110
 ,-0.00006603,0.00009755,-0.00005671,0.00001483,-0.00008588,-0.00000359
 ,0.00005525,-0.00014788,-0.00089487,0.00059983,-0.00068506,0.00089990,
 -0.00009938,-0.00019439,0.00019469,0.00009530,0.00372293,-0.00002884,0
 .00000070,-0.00009516,0.00003307,-0.00000582,0.00003323,-0.00000926,0.
 00001248,0.00005656,-0.02852526,-0.01972827,-0.00972382,0.00098798,0.0
 0006014,0.00123874,-0.00154954,0.00220791,-0.00471245,-0.00000732,-0.0
 0000178,-0.00002308,-0.00000154,0.00000091,0.00000269,0.00000299,0.000
 00019,0.00000259,0.00000189,-0.00000086,0.00000221,0.00001477,-0.00001
 474,0.00015820,0.00001170,-0.00000279,-0.00002289,0.00000298,-0.000137
 99,-0.00002803,0.00021722,0.00002102,-0.00011271,0.00001290,-0.0000548
 6,-0.00004026,-0.00002199,0.00003191,0.00005532,-0.00000011,-0.0000011
 7,0.00000741,0.00000023,0.00000151,0.00000216,-0.00000110,-0.00000068,
 0.00000184,0.00000170,-0.00000145,-0.00000264,0.00000725,-0.00000901,0
 .00001187,0.00002486,-0.00000954,0.00001551,-0.00000459,-0.00000962,0.
 00000110,-0.03904948,-0.02881221,-0.05886526,0.02004957,0.01528723,0.0
 0543431,-0.00061286,-0.00065823,-0.00060286,0.04825530,0.03122948,0.06
 443898\\-0.00000122,0.00000220,-0.00000056,0.00000008,0.00000005,-0.00
 000230,-0.00000080,-0.00000587,0.00000101,-0.00000327,0.00000172,-0.00
 000037,0.00000279,0.00000110,0.,-0.00000170,-0.00000232,-0.00000005,0.
 00000026,-0.00000134,-0.00000006,-0.00000156,-0.00000033,0.00000033,-0
 .00000024,0.,-0.00000016,0.00000131,0.00000246,-0.00000379,0.00000172,
 -0.00000017,0.00000553,-0.00000201,0.00000005,0.00000381,0.00000005,-0
 .00000110,-0.00000172,0.00000640,-0.00000204,-0.00000643,-0.00000325,0
 .00000069,-0.00000560,0.00000186,-0.00000192,0.00000127,-0.00000550,0.
 00000259,0.00000982,0.00000100,0.00000181,-0.00000286,0.00000141,0.000
 00055,0.00000107,0.00000144,-0.00000200,0.00000322,0.00000995,-0.00000
 518,-0.00001028,-0.00000134,0.00000057,0.00000158,-0.00000170,0.000000
 44,0.00000028,0.00000242,-0.00000023,0.00000159,0.00000022,0.00000043,
 -0.00000018,0.00000049,0.00000015,-0.00000051,0.00000033,0.00000018,-0
 .00000038,-0.00000369,-0.00000141,0.00000382,0.00000044,0.00000093,-0.
 00000002,-0.00000252,0.00000320,0.00000046,-0.00000019,-0.00000024,-0.
 00000050,0.00000008,-0.00000014,0.00000006,0.00000109,0.00000009,0.000
 00018,0.00000578,0.00001588,0.00000328,-0.00000226,-0.00000499,-0.0000
 0470,-0.00000261,-0.00000341,0.00000189,-0.00000163,-0.00000170,-0.000
 00065,0.00000010,0.00000007,0.00000093,-0.00000101,-0.00000170,-0.0000
 0031,-0.00000041,0.00000237,0.00000050,-0.00000166,-0.00000015,0.00000
 123,-0.00000027,-0.00000057,-0.00000035,-0.00000009,-0.00000041,-0.000
 00017,-0.00000030,-0.00000031,0.00000005\\\@


 AN AIRPLANE IS A COLLECTION OF SPARE PARTS
 FLYING IN CLOSE FORMATION.
 Job cpu time:       0 days  1 hours 23 minutes 30.8 seconds.
 Elapsed time:       0 days  0 hours  5 minutes 13.3 seconds.
 File lengths (MBytes):  RWF=    929 Int=      0 D2E=      0 Chk=     15 Scr=      1
 Normal termination of Gaussian 16 at Wed Jun  4 16:06:35 2025.
