 Entering Gaussian System, Link 0=g16
 Input=/Users/yarger/Library/Mobile Documents/com~apple~CloudDocs/Files/Data/Computational/Gaussian16/NIF_FEL/Felodipine_DFT_B3LYP_6311pp2d3p_OptFreq_Raman_Hirshfeld.gjf
 Output=/Users/yarger/Library/Mobile Documents/com~apple~CloudDocs/Files/Data/Computational/Gaussian16/NIF_FEL/Felodipine_DFT_B3LYP_6311pp2d3p_OptFreq_Raman_Hirshfeld.log
 Initial command:
 /Users/yarger/Applications/g16/l1.exe "/Users/yarger/Applications/scratch/Gau-37447.inp" -scrdir="/Users/yarger/Applications/scratch/"
 Entering Link 1 = /Users/yarger/Applications/g16/l1.exe PID=     37448.
  
 Copyright (c) 1988,1990,1992,1993,1995,1998,2003,2009,2016,
            Gaussian, Inc.  All Rights Reserved.
  
 This is part of the Gaussian(R) 16 program.  It is based on
 the Gaussian(R) 09 system (copyright 2009, Gaussian, Inc.),
 the Gaussian(R) 03 system (copyright 2003, Gaussian, Inc.),
 the Gaussian(R) 98 system (copyright 1998, Gaussian, Inc.),
 the Gaussian(R) 94 system (copyright 1995, Gaussian, Inc.),
 the Gaussian 92(TM) system (copyright 1992, Gaussian, Inc.),
 the Gaussian 90(TM) system (copyright 1990, Gaussian, Inc.),
 the Gaussian 88(TM) system (copyright 1988, Gaussian, Inc.),
 the Gaussian 86(TM) system (copyright 1986, Carnegie Mellon
 University), and the Gaussian 82(TM) system (copyright 1983,
 Carnegie Mellon University). Gaussian is a federally registered
 trademark of Gaussian, Inc.
  
 This software contains proprietary and confidential information,
 including trade secrets, belonging to Gaussian, Inc.
  
 This software is provided under written license and may be
 used, copied, transmitted, or stored only in accord with that
 written license.
  
 The following legend is applicable only to US Government
 contracts under FAR:
  
                    RESTRICTED RIGHTS LEGEND
  
 Use, reproduction and disclosure by the US Government is
 subject to restrictions as set forth in subparagraphs (a)
 and (c) of the Commercial Computer Software - Restricted
 Rights clause in FAR 52.227-19.
  
 Gaussian, Inc.
 340 Quinnipiac St., Bldg. 40, Wallingford CT 06492
  
  
 ---------------------------------------------------------------
 Warning -- This program may not be used in any manner that
 competes with the business of Gaussian, Inc. or will provide
 assistance to any competitor of Gaussian, Inc.  The licensee
 of this program is prohibited from giving any competitor of
 Gaussian, Inc. access to this program.  By using this program,
 the user acknowledges that Gaussian, Inc. is engaged in the
 business of creating and licensing software in the field of
 computational chemistry and represents and warrants to the
 licensee that it is not a competitor of Gaussian, Inc. and that
 it will not use this program in any manner prohibited above.
 ---------------------------------------------------------------
  

 Cite this work as:
 Gaussian 16, Revision A.03,
 M. J. Frisch, G. W. Trucks, H. B. Schlegel, G. E. Scuseria, 
 M. A. Robb, J. R. Cheeseman, G. Scalmani, V. Barone, 
 G. A. Petersson, H. Nakatsuji, X. Li, M. Caricato, A. V. Marenich, 
 J. Bloino, B. G. Janesko, R. Gomperts, B. Mennucci, H. P. Hratchian, 
 J. V. Ortiz, A. F. Izmaylov, J. L. Sonnenberg, D. Williams-Young, 
 F. Ding, F. Lipparini, F. Egidi, J. Goings, B. Peng, A. Petrone, 
 T. Henderson, D. Ranasinghe, V. G. Zakrzewski, J. Gao, N. Rega, 
 G. Zheng, W. Liang, M. Hada, M. Ehara, K. Toyota, R. Fukuda, 
 J. Hasegawa, M. Ishida, T. Nakajima, Y. Honda, O. Kitao, H. Nakai, 
 T. Vreven, K. Throssell, J. A. Montgomery, Jr., J. E. Peralta, 
 F. Ogliaro, M. J. Bearpark, J. J. Heyd, E. N. Brothers, K. N. Kudin, 
 V. N. Staroverov, T. A. Keith, R. Kobayashi, J. Normand, 
 K. Raghavachari, A. P. Rendell, J. C. Burant, S. S. Iyengar, 
 J. Tomasi, M. Cossi, J. M. Millam, M. Klene, C. Adamo, R. Cammi, 
 J. W. Ochterski, R. L. Martin, K. Morokuma, O. Farkas, 
 J. B. Foresman, and D. J. Fox, Gaussian, Inc., Wallingford CT, 2016.
 
 ******************************************
 Gaussian 16:  EM64M-G16RevA.03 25-Dec-2016
                26-Jan-2026 
 ******************************************
 %nprocshared=8
 Will use up to    8 processors via shared memory.
 %mem=8GB
 %chk=Felodipine_DFT_B3LYP_6311pp2d3p_OptFreq_Raman_Hirshfeld.chk
 ----------------------------------------------------------------------
 #p opt freq=raman b3lyp/6-311++g(2d,3p) guess=save pop=hirshfeld geom=
 connectivity polar
 ----------------------------------------------------------------------
 1/18=20,19=15,26=3,38=1,57=2/1,3;
 2/9=110,12=2,17=6,18=5,40=1/2;
 3/5=4,6=6,7=1512,11=2,25=1,30=1,71=1,74=-5/1,2,3;
 4//1;
 5/5=2,38=5,98=1/2;
 6/7=2,8=2,9=2,10=2,28=1,79=1/1;
 7//1,2,3,16;
 1/18=20,19=15,26=3/3(2);
 2/9=110/2;
 99//99;
 2/9=110/2;
 3/5=4,6=6,7=1512,11=2,25=1,30=1,71=1,74=-5/1,2,3;
 4/5=5,16=3,69=1/1;
 5/5=2,38=5,98=1/2;
 7//1,2,3,16;
 1/18=20,19=15,26=3/3(-5);
 2/9=110/2;
 6/7=2,8=2,9=2,10=2,19=2,28=1,79=1/1;
 99/9=1/99;
 Leave Link    1 at Mon Jan 26 20:23:18 2026, MaxMem=  1073741824 cpu:               0.3 elap:               0.1
 (Enter /Users/yarger/Applications/g16/l101.exe)
 ----------
 Felodipine
 ----------
 Symbolic Z-matrix:
 Charge =  0 Multiplicity = 1
 C                     0.57261   1.46691  -2.03417 
 C                     0.44864   0.85718  -0.77399 
 C                     0.66663   1.66664   0.34978 
 C                     0.99205   3.01775   0.21214 
 C                     1.10973   3.60093  -1.04265 
 C                     0.89664   2.81219  -2.17301 
 H                     0.40753   0.85742  -2.9082 
 H                     1.36215   4.64699  -1.12519 
 H                     0.98427   3.25053  -3.15713 
 C                     0.08367  -0.64795  -0.74884 
 C                     1.18753  -1.52605  -0.15919 
 C                    -1.27872  -0.92699  -0.11315 
 C                     1.01436  -2.17917   1.02493 
 C                    -1.38214  -1.59691   1.06937 
 C                    -2.40888  -0.46658  -0.91455 
 O                    -2.29301   0.00978  -2.05825 
 O                    -3.65741  -0.60167  -0.32578 
 C                     2.37404  -1.62842  -1.00134 
 O                     2.45955  -1.14016  -2.14186 
 O                     3.43563  -2.33457  -0.4524 
 C                    -4.81377  -0.1354   -1.12462 
 H                    -4.65263   0.91135  -1.37959 
 H                    -4.843    -0.70754  -2.05142 
 C                     4.63754  -2.44445  -1.28952 
 H                     5.33944  -3.01394  -0.69045 
 H                     4.40489  -2.96075  -2.21825 
 H                     5.02872  -1.4553   -1.51677 
 N                    -0.23237  -2.13409   1.63637 
 H                    -0.31882  -2.55924   2.54305 
 C                    -2.63502  -1.87105   1.86163 
 H                    -3.15736  -0.94755   2.09745 
 H                    -3.33321  -2.48437   1.29519 
 H                    -2.3965   -2.38772   2.79306 
 C                     2.02966  -3.00441   1.77407 
 H                     2.34497  -3.86673   1.18946 
 H                     2.92728  -2.42692   1.97938 
 H                     1.61561  -3.35914   2.71965 
 H                     0.00164  -0.90316  -1.80512 
 Cl                    0.53278   0.98152   2.03822 
 Cl                    1.27901   4.08563   1.66453 
 C                    -6.0512   -0.34228  -0.27473 
 H                    -6.93602  -0.00937  -0.82127 
 H                    -6.18272  -1.39495  -0.0233 
 H                    -5.9883    0.22887   0.6516 
 
 ITRead=  0  0  0  0  0  0  0  0  0  0  0  0  0  0  0  0  0  0  0  0
 ITRead=  0  0  0  0  0  0  0  0  0  0  0  0  0  0  0  0  0  0  0  0
 ITRead=  0  0  0  0
 MicOpt= -1 -1 -1 -1 -1 -1 -1 -1 -1 -1 -1 -1 -1 -1 -1 -1 -1 -1 -1 -1
 MicOpt= -1 -1 -1 -1 -1 -1 -1 -1 -1 -1 -1 -1 -1 -1 -1 -1 -1 -1 -1 -1
 MicOpt= -1 -1 -1 -1
 NAtoms=     44 NQM=       44 NQMF=       0 NMMI=      0 NMMIF=      0
                NMic=       0 NMicF=      0.
                    Isotopes and Nuclear Properties:
 (Nuclear quadrupole moments (NQMom) in fm**2, nuclear magnetic moments (NMagM)
  in nuclear magnetons)

  Atom         1           2           3           4           5           6           7           8           9          10
 IAtWgt=          12          12          12          12          12          12           1           1           1          12
 AtmWgt=  12.0000000  12.0000000  12.0000000  12.0000000  12.0000000  12.0000000   1.0078250   1.0078250   1.0078250  12.0000000
 NucSpn=           0           0           0           0           0           0           1           1           1           0
 AtZEff=  -0.0000000  -0.0000000  -0.0000000  -0.0000000  -0.0000000  -0.0000000  -0.0000000  -0.0000000  -0.0000000  -0.0000000
 NQMom=    0.0000000   0.0000000   0.0000000   0.0000000   0.0000000   0.0000000   0.0000000   0.0000000   0.0000000   0.0000000
 NMagM=    0.0000000   0.0000000   0.0000000   0.0000000   0.0000000   0.0000000   2.7928460   2.7928460   2.7928460   0.0000000
 AtZNuc=   6.0000000   6.0000000   6.0000000   6.0000000   6.0000000   6.0000000   1.0000000   1.0000000   1.0000000   6.0000000

  Atom        11          12          13          14          15          16          17          18          19          20
 IAtWgt=          12          12          12          12          12          16          16          12          16          16
 AtmWgt=  12.0000000  12.0000000  12.0000000  12.0000000  12.0000000  15.9949146  15.9949146  12.0000000  15.9949146  15.9949146
 NucSpn=           0           0           0           0           0           0           0           0           0           0
 AtZEff=  -0.0000000  -0.0000000  -0.0000000  -0.0000000  -0.0000000  -0.0000000  -0.0000000  -0.0000000  -0.0000000  -0.0000000
 NQMom=    0.0000000   0.0000000   0.0000000   0.0000000   0.0000000   0.0000000   0.0000000   0.0000000   0.0000000   0.0000000
 NMagM=    0.0000000   0.0000000   0.0000000   0.0000000   0.0000000   0.0000000   0.0000000   0.0000000   0.0000000   0.0000000
 AtZNuc=   6.0000000   6.0000000   6.0000000   6.0000000   6.0000000   8.0000000   8.0000000   6.0000000   8.0000000   8.0000000

  Atom        21          22          23          24          25          26          27          28          29          30
 IAtWgt=          12           1           1          12           1           1           1          14           1          12
 AtmWgt=  12.0000000   1.0078250   1.0078250  12.0000000   1.0078250   1.0078250   1.0078250  14.0030740   1.0078250  12.0000000
 NucSpn=           0           1           1           0           1           1           1           2           1           0
 AtZEff=  -0.0000000  -0.0000000  -0.0000000  -0.0000000  -0.0000000  -0.0000000  -0.0000000  -0.0000000  -0.0000000  -0.0000000
 NQMom=    0.0000000   0.0000000   0.0000000   0.0000000   0.0000000   0.0000000   0.0000000   2.0440000   0.0000000   0.0000000
 NMagM=    0.0000000   2.7928460   2.7928460   0.0000000   2.7928460   2.7928460   2.7928460   0.4037610   2.7928460   0.0000000
 AtZNuc=   6.0000000   1.0000000   1.0000000   6.0000000   1.0000000   1.0000000   1.0000000   7.0000000   1.0000000   6.0000000

  Atom        31          32          33          34          35          36          37          38          39          40
 IAtWgt=           1           1           1          12           1           1           1           1          35          35
 AtmWgt=   1.0078250   1.0078250   1.0078250  12.0000000   1.0078250   1.0078250   1.0078250   1.0078250  34.9688527  34.9688527
 NucSpn=           1           1           1           0           1           1           1           1           3           3
 AtZEff=  -0.0000000  -0.0000000  -0.0000000  -0.0000000  -0.0000000  -0.0000000  -0.0000000  -0.0000000  -0.0000000  -0.0000000
 NQMom=    0.0000000   0.0000000   0.0000000   0.0000000   0.0000000   0.0000000   0.0000000   0.0000000  -8.1650000  -8.1650000
 NMagM=    2.7928460   2.7928460   2.7928460   0.0000000   2.7928460   2.7928460   2.7928460   2.7928460   0.8218740   0.8218740
 AtZNuc=   1.0000000   1.0000000   1.0000000   6.0000000   1.0000000   1.0000000   1.0000000   1.0000000  17.0000000  17.0000000

  Atom        41          42          43          44
 IAtWgt=          12           1           1           1
 AtmWgt=  12.0000000   1.0078250   1.0078250   1.0078250
 NucSpn=           0           1           1           1
 AtZEff=  -0.0000000  -0.0000000  -0.0000000  -0.0000000
 NQMom=    0.0000000   0.0000000   0.0000000   0.0000000
 NMagM=    0.0000000   2.7928460   2.7928460   2.7928460
 AtZNuc=   6.0000000   1.0000000   1.0000000   1.0000000
 Leave Link  101 at Mon Jan 26 20:23:18 2026, MaxMem=  1073741824 cpu:               1.2 elap:               0.2
 (Enter /Users/yarger/Applications/g16/l103.exe)

 GradGradGradGradGradGradGradGradGradGradGradGradGradGradGradGradGradGrad
 Berny optimization.
 Initialization pass.
                           ----------------------------
                           !    Initial Parameters    !
                           ! (Angstroms and Degrees)  !
 --------------------------                            --------------------------
 ! Name  Definition              Value          Derivative Info.                !
 --------------------------------------------------------------------------------
 ! R1    R(1,2)                  1.4054         estimate D2E/DX2                !
 ! R2    R(1,6)                  1.3907         estimate D2E/DX2                !
 ! R3    R(1,7)                  1.0783         estimate D2E/DX2                !
 ! R4    R(2,3)                  1.402          estimate D2E/DX2                !
 ! R5    R(2,10)                 1.549          estimate D2E/DX2                !
 ! R6    R(3,4)                  1.3966         estimate D2E/DX2                !
 ! R7    R(3,39)                 1.8271         estimate D2E/DX2                !
 ! R8    R(4,5)                  1.3887         estimate D2E/DX2                !
 ! R9    R(4,40)                 1.8254         estimate D2E/DX2                !
 ! R10   R(5,6)                  1.3947         estimate D2E/DX2                !
 ! R11   R(5,8)                  1.0792         estimate D2E/DX2                !
 ! R12   R(6,9)                  1.0809         estimate D2E/DX2                !
 ! R13   R(10,11)                1.5288         estimate D2E/DX2                !
 ! R14   R(10,12)                1.5291         estimate D2E/DX2                !
 ! R15   R(10,38)                1.0898         estimate D2E/DX2                !
 ! R16   R(11,13)                1.3633         estimate D2E/DX2                !
 ! R17   R(11,18)                1.4586         estimate D2E/DX2                !
 ! R18   R(12,14)                1.363          estimate D2E/DX2                !
 ! R19   R(12,15)                1.46           estimate D2E/DX2                !
 ! R20   R(13,28)                1.3893         estimate D2E/DX2                !
 ! R21   R(13,34)                1.5077         estimate D2E/DX2                !
 ! R22   R(14,28)                1.39           estimate D2E/DX2                !
 ! R23   R(14,30)                1.5075         estimate D2E/DX2                !
 ! R24   R(15,16)                1.2443         estimate D2E/DX2                !
 ! R25   R(15,17)                1.387          estimate D2E/DX2                !
 ! R26   R(17,21)                1.4808         estimate D2E/DX2                !
 ! R27   R(18,19)                1.2436         estimate D2E/DX2                !
 ! R28   R(18,20)                1.3881         estimate D2E/DX2                !
 ! R29   R(20,24)                1.4688         estimate D2E/DX2                !
 ! R30   R(21,22)                1.0893         estimate D2E/DX2                !
 ! R31   R(21,23)                1.0896         estimate D2E/DX2                !
 ! R32   R(21,41)                1.5154         estimate D2E/DX2                !
 ! R33   R(24,25)                1.0844         estimate D2E/DX2                !
 ! R34   R(24,26)                1.0878         estimate D2E/DX2                !
 ! R35   R(24,27)                1.0877         estimate D2E/DX2                !
 ! R36   R(28,29)                1.0051         estimate D2E/DX2                !
 ! R37   R(30,31)                1.0869         estimate D2E/DX2                !
 ! R38   R(30,32)                1.0883         estimate D2E/DX2                !
 ! R39   R(30,33)                1.0915         estimate D2E/DX2                !
 ! R40   R(34,35)                1.0885         estimate D2E/DX2                !
 ! R41   R(34,36)                1.0869         estimate D2E/DX2                !
 ! R42   R(34,37)                1.0915         estimate D2E/DX2                !
 ! R43   R(41,42)                1.092          estimate D2E/DX2                !
 ! R44   R(41,43)                1.0902         estimate D2E/DX2                !
 ! R45   R(41,44)                1.0901         estimate D2E/DX2                !
 ! A1    A(2,1,6)              121.9881         estimate D2E/DX2                !
 ! A2    A(2,1,7)              117.9095         estimate D2E/DX2                !
 ! A3    A(6,1,7)              120.1023         estimate D2E/DX2                !
 ! A4    A(1,2,3)              117.0337         estimate D2E/DX2                !
 ! A5    A(1,2,10)             117.1881         estimate D2E/DX2                !
 ! A6    A(3,2,10)             125.7782         estimate D2E/DX2                !
 ! A7    A(2,3,4)              121.0515         estimate D2E/DX2                !
 ! A8    A(2,3,39)             120.8534         estimate D2E/DX2                !
 ! A9    A(4,3,39)             118.0951         estimate D2E/DX2                !
 ! A10   A(3,4,5)              121.0034         estimate D2E/DX2                !
 ! A11   A(3,4,40)             121.6133         estimate D2E/DX2                !
 ! A12   A(5,4,40)             117.3833         estimate D2E/DX2                !
 ! A13   A(4,5,6)              118.8079         estimate D2E/DX2                !
 ! A14   A(4,5,8)              119.7329         estimate D2E/DX2                !
 ! A15   A(6,5,8)              121.4592         estimate D2E/DX2                !
 ! A16   A(1,6,5)              120.1154         estimate D2E/DX2                !
 ! A17   A(1,6,9)              120.1376         estimate D2E/DX2                !
 ! A18   A(5,6,9)              119.7471         estimate D2E/DX2                !
 ! A19   A(2,10,11)            113.219          estimate D2E/DX2                !
 ! A20   A(2,10,12)            113.2047         estimate D2E/DX2                !
 ! A21   A(2,10,38)            103.2714         estimate D2E/DX2                !
 ! A22   A(11,10,12)           112.22           estimate D2E/DX2                !
 ! A23   A(11,10,38)           107.0785         estimate D2E/DX2                !
 ! A24   A(12,10,38)           107.0474         estimate D2E/DX2                !
 ! A25   A(10,11,13)           121.2274         estimate D2E/DX2                !
 ! A26   A(10,11,18)           113.8895         estimate D2E/DX2                !
 ! A27   A(13,11,18)           124.8321         estimate D2E/DX2                !
 ! A28   A(10,12,14)           121.1968         estimate D2E/DX2                !
 ! A29   A(10,12,15)           113.8258         estimate D2E/DX2                !
 ! A30   A(14,12,15)           124.924          estimate D2E/DX2                !
 ! A31   A(11,13,28)           118.7301         estimate D2E/DX2                !
 ! A32   A(11,13,34)           127.4627         estimate D2E/DX2                !
 ! A33   A(28,13,34)           113.7903         estimate D2E/DX2                !
 ! A34   A(12,14,28)           118.7562         estimate D2E/DX2                !
 ! A35   A(12,14,30)           127.4729         estimate D2E/DX2                !
 ! A36   A(28,14,30)           113.7544         estimate D2E/DX2                !
 ! A37   A(12,15,16)           123.5849         estimate D2E/DX2                !
 ! A38   A(12,15,17)           115.6644         estimate D2E/DX2                !
 ! A39   A(16,15,17)           120.748          estimate D2E/DX2                !
 ! A40   A(15,17,21)           116.3138         estimate D2E/DX2                !
 ! A41   A(11,18,19)           123.9106         estimate D2E/DX2                !
 ! A42   A(11,18,20)           115.4348         estimate D2E/DX2                !
 ! A43   A(19,18,20)           120.6514         estimate D2E/DX2                !
 ! A44   A(18,20,24)           116.0061         estimate D2E/DX2                !
 ! A45   A(17,21,22)           108.2591         estimate D2E/DX2                !
 ! A46   A(17,21,23)           108.3298         estimate D2E/DX2                !
 ! A47   A(17,21,41)           106.9855         estimate D2E/DX2                !
 ! A48   A(22,21,23)           108.0263         estimate D2E/DX2                !
 ! A49   A(22,21,41)           112.5349         estimate D2E/DX2                !
 ! A50   A(23,21,41)           112.5492         estimate D2E/DX2                !
 ! A51   A(20,24,25)           104.7194         estimate D2E/DX2                !
 ! A52   A(20,24,26)           110.3096         estimate D2E/DX2                !
 ! A53   A(20,24,27)           110.202          estimate D2E/DX2                !
 ! A54   A(25,24,26)           111.153          estimate D2E/DX2                !
 ! A55   A(25,24,27)           111.1142         estimate D2E/DX2                !
 ! A56   A(26,24,27)           109.2799         estimate D2E/DX2                !
 ! A57   A(13,28,14)           125.1208         estimate D2E/DX2                !
 ! A58   A(13,28,29)           117.4156         estimate D2E/DX2                !
 ! A59   A(14,28,29)           117.406          estimate D2E/DX2                !
 ! A60   A(14,30,31)           111.0343         estimate D2E/DX2                !
 ! A61   A(14,30,32)           111.2302         estimate D2E/DX2                !
 ! A62   A(14,30,33)           110.6669         estimate D2E/DX2                !
 ! A63   A(31,30,32)           106.4663         estimate D2E/DX2                !
 ! A64   A(31,30,33)           108.7885         estimate D2E/DX2                !
 ! A65   A(32,30,33)           108.5156         estimate D2E/DX2                !
 ! A66   A(13,34,35)           111.2133         estimate D2E/DX2                !
 ! A67   A(13,34,36)           111.0497         estimate D2E/DX2                !
 ! A68   A(13,34,37)           110.6637         estimate D2E/DX2                !
 ! A69   A(35,34,36)           106.4484         estimate D2E/DX2                !
 ! A70   A(35,34,37)           108.524          estimate D2E/DX2                !
 ! A71   A(36,34,37)           108.8027         estimate D2E/DX2                !
 ! A72   A(21,41,42)           109.8363         estimate D2E/DX2                !
 ! A73   A(21,41,43)           111.0795         estimate D2E/DX2                !
 ! A74   A(21,41,44)           110.9745         estimate D2E/DX2                !
 ! A75   A(42,41,43)           108.182          estimate D2E/DX2                !
 ! A76   A(42,41,44)           108.2001         estimate D2E/DX2                !
 ! A77   A(43,41,44)           108.4751         estimate D2E/DX2                !
 ! D1    D(6,1,2,3)              0.0028         estimate D2E/DX2                !
 ! D2    D(6,1,2,10)          -179.9982         estimate D2E/DX2                !
 ! D3    D(7,1,2,3)           -179.9757         estimate D2E/DX2                !
 ! D4    D(7,1,2,10)             0.0232         estimate D2E/DX2                !
 ! D5    D(2,1,6,5)             -0.0028         estimate D2E/DX2                !
 ! D6    D(2,1,6,9)            179.9995         estimate D2E/DX2                !
 ! D7    D(7,1,6,5)            179.9753         estimate D2E/DX2                !
 ! D8    D(7,1,6,9)             -0.0224         estimate D2E/DX2                !
 ! D9    D(1,2,3,4)             -0.0004         estimate D2E/DX2                !
 ! D10   D(1,2,3,39)          -179.9915         estimate D2E/DX2                !
 ! D11   D(10,2,3,4)          -179.9992         estimate D2E/DX2                !
 ! D12   D(10,2,3,39)            0.0097         estimate D2E/DX2                !
 ! D13   D(1,2,10,11)          115.4434         estimate D2E/DX2                !
 ! D14   D(1,2,10,12)         -115.387          estimate D2E/DX2                !
 ! D15   D(1,2,10,38)            0.0065         estimate D2E/DX2                !
 ! D16   D(3,2,10,11)          -64.5578         estimate D2E/DX2                !
 ! D17   D(3,2,10,12)           64.6118         estimate D2E/DX2                !
 ! D18   D(3,2,10,38)         -179.9947         estimate D2E/DX2                !
 ! D19   D(2,3,4,5)             -0.0021         estimate D2E/DX2                !
 ! D20   D(2,3,4,40)           179.9982         estimate D2E/DX2                !
 ! D21   D(39,3,4,5)           179.9893         estimate D2E/DX2                !
 ! D22   D(39,3,4,40)           -0.0104         estimate D2E/DX2                !
 ! D23   D(3,4,5,6)              0.0022         estimate D2E/DX2                !
 ! D24   D(3,4,5,8)           -179.9989         estimate D2E/DX2                !
 ! D25   D(40,4,5,6)          -179.9981         estimate D2E/DX2                !
 ! D26   D(40,4,5,8)             0.0008         estimate D2E/DX2                !
 ! D27   D(4,5,6,1)              0.0002         estimate D2E/DX2                !
 ! D28   D(4,5,6,9)            179.998          estimate D2E/DX2                !
 ! D29   D(8,5,6,1)           -179.9987         estimate D2E/DX2                !
 ! D30   D(8,5,6,9)             -0.001          estimate D2E/DX2                !
 ! D31   D(2,10,11,13)         112.8488         estimate D2E/DX2                !
 ! D32   D(2,10,11,18)         -69.6283         estimate D2E/DX2                !
 ! D33   D(12,10,11,13)        -16.8222         estimate D2E/DX2                !
 ! D34   D(12,10,11,18)        160.7006         estimate D2E/DX2                !
 ! D35   D(38,10,11,13)       -134.0025         estimate D2E/DX2                !
 ! D36   D(38,10,11,18)         43.5203         estimate D2E/DX2                !
 ! D37   D(2,10,12,14)        -112.8629         estimate D2E/DX2                !
 ! D38   D(2,10,12,15)          69.6692         estimate D2E/DX2                !
 ! D39   D(11,10,12,14)         16.8156         estimate D2E/DX2                !
 ! D40   D(11,10,12,15)       -160.6524         estimate D2E/DX2                !
 ! D41   D(38,10,12,14)        134.0144         estimate D2E/DX2                !
 ! D42   D(38,10,12,15)        -43.4535         estimate D2E/DX2                !
 ! D43   D(10,11,13,28)          5.784          estimate D2E/DX2                !
 ! D44   D(10,11,13,34)       -175.8127         estimate D2E/DX2                !
 ! D45   D(18,11,13,28)       -171.4565         estimate D2E/DX2                !
 ! D46   D(18,11,13,34)          6.9469         estimate D2E/DX2                !
 ! D47   D(10,11,18,19)         -5.331          estimate D2E/DX2                !
 ! D48   D(10,11,18,20)        175.3206         estimate D2E/DX2                !
 ! D49   D(13,11,18,19)        172.0883         estimate D2E/DX2                !
 ! D50   D(13,11,18,20)         -7.2601         estimate D2E/DX2                !
 ! D51   D(10,12,14,28)         -5.7783         estimate D2E/DX2                !
 ! D52   D(10,12,14,30)        175.7935         estimate D2E/DX2                !
 ! D53   D(15,12,14,28)        171.3964         estimate D2E/DX2                !
 ! D54   D(15,12,14,30)         -7.0318         estimate D2E/DX2                !
 ! D55   D(10,12,15,16)          5.6319         estimate D2E/DX2                !
 ! D56   D(10,12,15,17)       -174.9615         estimate D2E/DX2                !
 ! D57   D(14,12,15,16)       -171.7264         estimate D2E/DX2                !
 ! D58   D(14,12,15,17)          7.6802         estimate D2E/DX2                !
 ! D59   D(11,13,28,14)          7.6238         estimate D2E/DX2                !
 ! D60   D(11,13,28,29)       -175.2159         estimate D2E/DX2                !
 ! D61   D(34,13,28,14)       -170.9912         estimate D2E/DX2                !
 ! D62   D(34,13,28,29)          6.1691         estimate D2E/DX2                !
 ! D63   D(11,13,34,35)        -62.3112         estimate D2E/DX2                !
 ! D64   D(11,13,34,36)         56.037          estimate D2E/DX2                !
 ! D65   D(11,13,34,37)        176.9843         estimate D2E/DX2                !
 ! D66   D(28,13,34,35)        116.1587         estimate D2E/DX2                !
 ! D67   D(28,13,34,36)       -125.4931         estimate D2E/DX2                !
 ! D68   D(28,13,34,37)         -4.5458         estimate D2E/DX2                !
 ! D69   D(12,14,28,13)         -7.6264         estimate D2E/DX2                !
 ! D70   D(12,14,28,29)        175.213          estimate D2E/DX2                !
 ! D71   D(30,14,28,13)        171.0107         estimate D2E/DX2                !
 ! D72   D(30,14,28,29)         -6.1499         estimate D2E/DX2                !
 ! D73   D(12,14,30,31)        -56.2743         estimate D2E/DX2                !
 ! D74   D(12,14,30,32)         62.0973         estimate D2E/DX2                !
 ! D75   D(12,14,30,33)       -177.1954         estimate D2E/DX2                !
 ! D76   D(28,14,30,31)        125.2312         estimate D2E/DX2                !
 ! D77   D(28,14,30,32)       -116.3972         estimate D2E/DX2                !
 ! D78   D(28,14,30,33)          4.3101         estimate D2E/DX2                !
 ! D79   D(12,15,17,21)        179.8265         estimate D2E/DX2                !
 ! D80   D(16,15,17,21)         -0.7487         estimate D2E/DX2                !
 ! D81   D(15,17,21,22)        -56.8899         estimate D2E/DX2                !
 ! D82   D(15,17,21,23)         60.0195         estimate D2E/DX2                !
 ! D83   D(15,17,21,41)       -178.4068         estimate D2E/DX2                !
 ! D84   D(11,18,20,24)       -179.9505         estimate D2E/DX2                !
 ! D85   D(19,18,20,24)          0.678          estimate D2E/DX2                !
 ! D86   D(18,20,24,25)        179.5829         estimate D2E/DX2                !
 ! D87   D(18,20,24,26)        -60.743          estimate D2E/DX2                !
 ! D88   D(18,20,24,27)         60.0098         estimate D2E/DX2                !
 ! D89   D(17,21,41,42)        179.8497         estimate D2E/DX2                !
 ! D90   D(17,21,41,43)        -60.5098         estimate D2E/DX2                !
 ! D91   D(17,21,41,44)         60.2531         estimate D2E/DX2                !
 ! D92   D(22,21,41,42)         61.071          estimate D2E/DX2                !
 ! D93   D(22,21,41,43)       -179.2885         estimate D2E/DX2                !
 ! D94   D(22,21,41,44)        -58.5256         estimate D2E/DX2                !
 ! D95   D(23,21,41,42)        -61.2766         estimate D2E/DX2                !
 ! D96   D(23,21,41,43)         58.364          estimate D2E/DX2                !
 ! D97   D(23,21,41,44)        179.1268         estimate D2E/DX2                !
 --------------------------------------------------------------------------------
 Trust Radius=3.00D-01 FncErr=1.00D-07 GrdErr=1.00D-06 EigMax=2.50D+02 EigMin=1.00D-04
 Number of steps in this run=    229 maximum allowed number of steps=    264.
 GradGradGradGradGradGradGradGradGradGradGradGradGradGradGradGradGradGrad

 Leave Link  103 at Mon Jan 26 20:23:19 2026, MaxMem=  1073741824 cpu:               0.1 elap:               0.0
 (Enter /Users/yarger/Applications/g16/l202.exe)
                          Input orientation:                          
 ---------------------------------------------------------------------
 Center     Atomic      Atomic             Coordinates (Angstroms)
 Number     Number       Type             X           Y           Z
 ---------------------------------------------------------------------
      1          6           0        0.572612    1.466913   -2.034175
      2          6           0        0.448643    0.857176   -0.773992
      3          6           0        0.666633    1.666636    0.349778
      4          6           0        0.992049    3.017754    0.212137
      5          6           0        1.109727    3.600934   -1.042654
      6          6           0        0.896638    2.812190   -2.173010
      7          1           0        0.407525    0.857417   -2.908199
      8          1           0        1.362146    4.646992   -1.125186
      9          1           0        0.984273    3.250529   -3.157127
     10          6           0        0.083669   -0.647952   -0.748844
     11          6           0        1.187532   -1.526049   -0.159187
     12          6           0       -1.278721   -0.926994   -0.113146
     13          6           0        1.014358   -2.179174    1.024929
     14          6           0       -1.382141   -1.596910    1.069373
     15          6           0       -2.408875   -0.466579   -0.914545
     16          8           0       -2.293012    0.009780   -2.058247
     17          8           0       -3.657407   -0.601669   -0.325778
     18          6           0        2.374040   -1.628421   -1.001336
     19          8           0        2.459548   -1.140163   -2.141860
     20          8           0        3.435632   -2.334566   -0.452403
     21          6           0       -4.813772   -0.135404   -1.124624
     22          1           0       -4.652630    0.911347   -1.379590
     23          1           0       -4.842997   -0.707537   -2.051417
     24          6           0        4.637541   -2.444448   -1.289524
     25          1           0        5.339437   -3.013935   -0.690451
     26          1           0        4.404887   -2.960746   -2.218246
     27          1           0        5.028723   -1.455301   -1.516772
     28          7           0       -0.232373   -2.134087    1.636374
     29          1           0       -0.318818   -2.559238    2.543046
     30          6           0       -2.635022   -1.871046    1.861631
     31          1           0       -3.157356   -0.947545    2.097447
     32          1           0       -3.333209   -2.484366    1.295189
     33          1           0       -2.396502   -2.387722    2.793063
     34          6           0        2.029661   -3.004415    1.774066
     35          1           0        2.344965   -3.866730    1.189464
     36          1           0        2.927282   -2.426915    1.979376
     37          1           0        1.615607   -3.359144    2.719647
     38          1           0        0.001643   -0.903164   -1.805123
     39         17           0        0.532780    0.981518    2.038215
     40         17           0        1.279006    4.085628    1.664528
     41          6           0       -6.051200   -0.342281   -0.274728
     42          1           0       -6.936017   -0.009367   -0.821272
     43          1           0       -6.182722   -1.394954   -0.023304
     44          1           0       -5.988300    0.228871    0.651597
 ---------------------------------------------------------------------
                    Distance matrix (angstroms):
                    1          2          3          4          5
     1  C    0.000000
     2  C    1.405421   0.000000
     3  C    2.394151   1.402000   0.000000
     4  C    2.761694   2.436357   1.396553   0.000000
     5  C    2.413639   2.835034   2.424192   1.388686   0.000000
     6  C    1.390697   2.445410   2.780226   2.395889   1.394715
     7  H    1.078266   2.134603   3.366955   3.839951   3.391199
     8  H    3.400372   3.914145   3.397319   2.140052   1.079242
     9  H    2.147504   3.419703   3.861087   3.377304   2.146979
    10  C    2.522656   1.548951   2.627572   3.896927   4.380885
    11  C    3.584903   2.569767   3.274694   4.563139   5.203126
    12  C    3.584491   2.569779   3.274999   4.563249   5.202961
    13  C    4.779875   3.574293   3.920076   5.260151   6.139515
    14  C    4.779130   3.573836   3.919952   5.259920   6.139027
    15  C    3.725752   3.152379   3.950679   4.997627   5.379743
    16  O    3.214905   3.143893   4.159718   4.999418   5.050391
    17  O    5.009063   4.380499   4.929392   5.916673   6.395416
    18  C    3.727330   3.152306   3.949449   4.996935   5.380181
    19  O    3.220088   3.147088   4.159438   4.998313   5.050571
    20  O    5.014990   4.383234   4.931579   5.921152   6.402218
    21  C    5.692788   5.366672   5.954498   6.740689   7.003912
    22  H    5.295308   5.137380   5.644088   6.231609   6.368058
    23  H    5.835868   5.664062   6.462078   7.283490   7.417240
    24  C    5.690070   5.358485   5.946128   6.736486   7.003789
    25  H    6.678788   6.237976   6.695141   7.489708   7.859452
    26  H    5.858701   5.684564   6.479348   7.300458   7.436111
    27  H    5.353874   5.184246   5.679642   6.268340   6.414735
    28  N    5.204626   3.901449   4.112060   5.483532   6.470617
    29  H    6.160803   4.823238   4.862052   6.185010   7.269505
    30  C    6.050470   4.888629   5.069696   6.306888   7.238825
    31  H    6.067336   4.950294   4.950877   6.041155   6.982614
    32  H    6.477091   5.454339   5.841520   7.081962   7.888984
    33  H    6.853910   5.598937   5.638285   6.882051   7.929084
    34  C    6.051319   4.889182   5.070026   6.307359   7.239532
    35  H    6.479262   5.455867   5.842945   7.083902   7.891398
    36  H    6.067533   4.950751   4.952099   6.042572   6.983633
    37  H    6.854013   5.598631   5.636958   6.880498   7.928021
    38  H    2.448619   2.088501   3.419018   4.519274   4.700650
    39  Cl   4.101409   2.816212   1.827053   2.773400   4.084845
    40  Cl   4.586618   4.130228   2.820477   1.825415   2.755434
    41  C    7.088281   6.628418   7.039534   7.818838   8.210818
    42  H    7.747906   7.435478   7.872778   8.549013   8.821410
    43  H    7.607130   7.043481   7.511737   8.426432   8.898190
    44  H    7.196644   6.622787   6.815159   7.529692   8.038861
                    6          7          8          9         10
     6  C    0.000000
     7  H    2.144964   0.000000
     8  H    2.163592   4.295499   0.000000
     9  H    1.080883   2.474184   2.494330   0.000000
    10  C    3.829066   2.652137   5.460089   4.670018   0.000000
    11  C    4.791703   3.721074   6.250606   5.643107   1.528811
    12  C    4.791318   3.720198   6.250418   5.642576   1.529079
    13  C    5.929113   5.005859   7.165228   6.853625   2.521328
    14  C    5.928410   5.004768   7.164741   6.852801   2.520919
    15  C    4.822912   3.695907   6.357167   5.509947   2.504621
    16  O    4.247416   2.955302   5.977836   4.738205   2.792089
    17  O    5.983814   5.032048   7.306395   6.663420   3.765206
    18  C    4.824372   3.699013   6.357679   5.512081   2.504171
    19  O    4.250265   2.964524   5.977381   4.741875   2.797779
    20  O    5.991333   5.038762   7.313968   6.672179   3.764067
    21  C    6.511237   5.606137   7.811099   7.015193   4.938506
    22  H    5.919214   5.286277   7.085005   6.356578   5.026110
    23  H    6.733994   5.545371   8.248193   7.130635   5.096301
    24  C    6.512077   5.604949   7.813049   7.019051   4.925189
    25  H    7.475304   6.650528   8.642780   8.018445   5.764060
    26  H    6.755490   5.570755   8.266240   7.152764   5.116745
    27  H    5.976308   5.351654   7.129874   6.418191   5.069032
    28  N    6.344425   5.478294   7.493446   7.311085   2.828028
    29  H    7.250569   6.474348   8.259014   8.242779   3.827734
    30  C    7.119245   6.281153   8.208730   8.032295   3.962552
    31  H    6.986221   6.404901   7.880997   7.898574   4.323814
    32  H    7.614034   6.544393   8.874730   8.447058   4.384694
    33  H    7.908586   7.134275   8.886355   8.867033   4.660810
    34  C    7.120115   6.282410   8.209462   8.033295   3.962938
    35  H    7.616551   6.546914   8.877331   8.449835   4.385320
    36  H    6.986705   6.405029   7.882139   7.898881   4.323659
    37  H    7.908247   7.135229   8.885111   8.866952   4.661312
    38  H    3.839298   2.116876   5.754782   4.477348   1.089765
    39  Cl   4.606318   4.949556   4.912296   5.687164   3.259535
    40  Cl   4.061348   5.664862   2.846848   4.902307   5.446097
    41  C    7.862990   7.077399   8.976292   8.409185   6.160750
    42  H    8.434386   7.683371   9.520166   8.877732   7.049044
    43  H    8.511089   7.538378   9.728530   9.097647   6.352328
    44  H    7.877456   7.346686   8.758185   8.500210   6.292763
                   11         12         13         14         15
    11  C    0.000000
    12  C    2.538383   0.000000
    13  C    1.363339   2.849804   0.000000
    14  C    2.849140   1.363024   2.466620   0.000000
    15  C    3.824550   1.459956   4.291045   2.503550   0.000000
    16  O    4.251986   2.385320   5.023563   3.632237   1.244346
    17  O    4.935146   2.410227   5.112565   2.848471   1.386985
    18  C    1.458594   3.824074   2.501562   4.289257   4.922772
    19  O    2.387033   4.258612   3.632722   5.027843   5.065724
    20  O    2.406996   4.931681   2.840638   5.105965   6.153147
    21  C    6.235512   3.761155   6.539470   4.327322   2.436666
    22  H    6.444981   4.045570   6.888235   4.794254   2.673833
    23  H    6.373208   4.063142   6.777775   4.744243   2.697311
    24  C    3.744820   6.220023   4.307496   6.520681   7.328339
    25  H    4.442337   6.963377   4.727120   7.091160   8.159386
    26  H    4.080374   6.393043   4.756546   6.793981   7.372100
    27  H    4.074652   6.483296   4.806180   6.914288   7.527158
    28  N    2.368518   2.369122   1.389329   1.389970   3.744988
    29  H    3.261692   3.262053   2.055842   2.056318   4.550000
    30  C    4.337585   2.574982   3.756726   1.507493   3.119427
    31  H    4.930022   2.901106   4.480000   2.151743   3.140645
    32  H    4.844655   2.937641   4.366637   2.155281   3.131898
    33  H    4.722665   3.439362   3.847565   2.150679   4.175799
    34  C    2.575309   4.338506   1.507670   3.757400   5.776664
    35  H    2.938928   4.844578   2.155326   4.365527   6.211834
    36  H    2.900300   4.931417   2.152121   4.481980   6.379049
    37  H    3.439647   4.724109   2.150790   3.849073   6.145790
    38  H    2.122127   2.121953   3.265423   3.264792   2.606594
    39  Cl   3.397818   3.398869   3.353899   3.354679   4.412382
    40  Cl   5.901290   5.901565   6.302925   6.302948   6.401146
    41  C    7.335796   4.810879   7.415214   5.018049   3.700182
    42  H    8.290400   5.774814   8.445412   6.077859   4.551127
    43  H    7.372672   4.927097   7.315173   4.927505   3.987244
    44  H    7.431667   4.909276   7.414531   4.972395   3.968468
                   16         17         18         19         20
    16  O    0.000000
    17  O    2.288426   0.000000
    18  C    5.057879   6.155400   0.000000
    19  O    4.890418   6.403536   1.243585   0.000000
    20  O    6.394690   7.302751   1.388145   2.287707   0.000000
    21  C    2.692018   1.480790   7.342271   7.412523   8.563928
    22  H    2.615568   2.095282   7.481149   7.441292   8.764451
    23  H    2.648965   2.096345   7.350940   7.315908   8.587186
    24  C    7.392343   8.551655   2.423301   2.677926   1.468820
    25  H    8.322740   9.321760   3.287838   3.729795   2.035358
    26  H    7.328811   8.610881   2.716671   2.665465   2.109445
    27  H    7.486485   8.808860   2.709795   2.662838   2.108062
    28  N    4.742639   4.234289   3.742539   4.744405   4.225807
    29  H    5.627539   4.817510   4.547587   5.628626   4.808231
    30  C    4.361183   2.727883   5.774612   6.520489   6.513251
    31  H    4.351247   2.498340   6.376707   7.039775   7.203683
    32  H    4.306775   2.505431   6.211229   6.868495   6.992405
    33  H    5.412387   3.808810   6.142644   7.034990   6.674553
    34  C    6.515942   6.521141   3.116859   4.358293   2.717097
    35  H    6.861908   6.998932   3.132168   4.306393   2.496559
    36  H    7.035009   7.211337   3.135014   4.342706   2.486061
    37  H    7.032441   6.684531   4.173289   5.410209   3.797914
    38  H    2.482535   3.958283   2.607746   2.492159   3.958667
    39  Cl   5.070540   5.064841   4.409182   5.068234   5.062227
    40  Cl   6.575021   7.092267   6.399710   6.571998   7.095867
    41  C    4.174789   2.408347   8.553758   8.749607   9.695398
    42  H    4.804994   3.368326   9.451504   9.555066  10.635493
    43  H    4.609134   2.664209   8.615639   8.901799   9.673662
    44  H    4.587637   2.660474   8.724130   9.002433   9.828556
                   21         22         23         24         25
    21  C    0.000000
    22  H    1.089340   0.000000
    23  H    1.089557   1.763059   0.000000
    24  C    9.730683   9.878094   9.668399   0.000000
    25  H   10.562296  10.757516  10.528707   1.084372   0.000000
    26  H    9.703723   9.886105   9.519881   1.087757   1.791751
    27  H    9.938341   9.967369   9.914426   1.087693   1.791282
    28  N    5.710259   6.157059   6.073936   5.689751   6.101911
    29  H    6.287399   6.798085   6.708657   6.266360   6.532848
    30  C    4.083763   4.724189   4.641212   7.946618   8.450522
    31  H    3.712819   4.216765   4.484647   8.629757   9.178117
    32  H    3.683094   4.519533   4.078769   8.379450   8.912800
    33  H    5.124881   5.777976   5.681316   8.133173   8.507160
    34  C    7.966568   8.362521   8.194107   4.062042   4.126567
    35  H    8.397935   8.854174   8.494151   3.663901   3.637060
    36  H    8.649263   8.937657   8.920807   3.689309   3.645691
    37  H    8.155233   8.621579   8.456219   5.103156   5.061111
    38  H    4.923490   5.013560   4.854840   4.912530   5.847212
    39  Cl   6.311631   6.210861   6.962541   6.297631   6.820060
    40  Cl   7.919496   7.384241   8.617517   7.915054   8.510982
    41  C    1.515371   2.179060   2.179401  10.940663  11.707142
    42  H    2.147518   2.524537   2.526149  11.836221  12.638485
    43  H    2.161804   3.082161   2.525994  10.944535  11.654455
    44  H    2.160364   2.524977   3.081374  11.127582  11.858942
                   26         27         28         29         30
    26  H    0.000000
    27  H    1.774148   0.000000
    28  N    6.086513   6.171079   0.000000
    29  H    6.718966   6.804189   1.005127   0.000000
    30  C    8.209334   8.385669   2.427479   2.510525   0.000000
    31  H    8.936761   8.962828   3.189984   3.294452   1.086874
    32  H    8.511715   8.881892   3.139154   3.263327   1.088340
    33  H    8.467613   8.635859   2.466924   2.099690   1.091518
    34  C    4.645660   4.714206   2.427597   2.510949   4.801194
    35  H    4.083696   4.510129   3.137587   3.261512   5.406925
    36  H    4.482000   4.193225   3.191680   3.297332   5.591250
    37  H    5.685208   5.763786   2.467646   2.100723   4.584591
    38  H    4.877794   5.065524   3.662490   4.663888   4.618862
    39  Cl   6.975107   6.228124   3.233254   3.676551   4.266529
    40  Cl   8.631249   7.408302   6.400774   6.890506   7.130248
    41  C   10.952779  11.204739   6.381350   6.761283   4.309458
    42  H   11.801622  12.071845   7.449383   7.849064   5.400220
    43  H   10.925518  11.310640   6.221535   6.505927   4.045469
    44  H   11.244020  11.353989   6.299528   6.595010   4.137428
                   31         32         33         34         35
    31  H    0.000000
    32  H    1.742516   0.000000
    33  H    1.771127   1.769290   0.000000
    34  C    5.589314   5.409265   4.583621   0.000000
    35  H    6.294570   5.844978   5.219244   1.088468   0.000000
    36  H    6.263010   6.298028   5.385750   1.086914   1.742447
    37  H    5.383690   5.223514   4.128689   1.091511   1.769482
    38  H    5.021085   4.820101   5.394286   4.619384   4.820937
    39  Cl   4.164360   5.245027   4.527943   4.265922   5.244988
    40  Cl   6.723210   8.035780   7.529091   7.130511   8.037534
    41  C    3.790500   3.800085   5.191530   8.751276   9.222862
    42  H    4.865941   4.856465   6.271139   9.802524  10.249826
    43  H    3.721639   3.323397   4.822134   8.559447   8.961134
    44  H    3.389496   3.850373   4.932895   8.717900   9.300890
                   36         37         38         39         40
    36  H    0.000000
    37  H    1.771311   0.000000
    38  H    5.020320   5.395393   0.000000
    39  Cl   4.165875   4.525286   4.313395   0.000000
    40  Cl   6.725263   7.526700   6.209523   3.214342   0.000000
    41  C    9.488932   8.766280   6.268461   7.102883   8.780604
    42  H   10.534364   9.843241   7.063849   8.058626   9.509721
    43  H    9.384447   8.496809   6.454696   7.415892   9.410789
    44  H    9.397010   8.658527   6.572396   6.709223   8.289411
                   41         42         43         44
    41  C    0.000000
    42  H    1.091990   0.000000
    43  H    1.090244   1.767500   0.000000
    44  H    1.090068   1.767560   1.769209   0.000000
 Stoichiometry    C18H19Cl2NO4
 Framework group  C1[X(C18H19Cl2NO4)]
 Deg. of freedom   126
 Full point group                 C1      NOp   1
 Largest Abelian subgroup         C1      NOp   1
 Largest concise Abelian subgroup C1      NOp   1
                         Standard orientation:                         
 ---------------------------------------------------------------------
 Center     Atomic      Atomic             Coordinates (Angstroms)
 Number     Number       Type             X           Y           Z
 ---------------------------------------------------------------------
      1          6           0        0.572612    1.466913   -2.034175
      2          6           0        0.448643    0.857176   -0.773992
      3          6           0        0.666633    1.666636    0.349778
      4          6           0        0.992049    3.017754    0.212137
      5          6           0        1.109727    3.600934   -1.042654
      6          6           0        0.896638    2.812190   -2.173010
      7          1           0        0.407525    0.857417   -2.908199
      8          1           0        1.362147    4.646992   -1.125186
      9          1           0        0.984273    3.250529   -3.157127
     10          6           0        0.083669   -0.647952   -0.748844
     11          6           0        1.187532   -1.526049   -0.159187
     12          6           0       -1.278721   -0.926994   -0.113146
     13          6           0        1.014358   -2.179174    1.024929
     14          6           0       -1.382141   -1.596910    1.069373
     15          6           0       -2.408875   -0.466579   -0.914545
     16          8           0       -2.293012    0.009780   -2.058247
     17          8           0       -3.657407   -0.601668   -0.325778
     18          6           0        2.374040   -1.628421   -1.001336
     19          8           0        2.459548   -1.140163   -2.141860
     20          8           0        3.435632   -2.334567   -0.452403
     21          6           0       -4.813772   -0.135403   -1.124624
     22          1           0       -4.652630    0.911348   -1.379590
     23          1           0       -4.842997   -0.707536   -2.051417
     24          6           0        4.637541   -2.444449   -1.289524
     25          1           0        5.339437   -3.013936   -0.690451
     26          1           0        4.404887   -2.960747   -2.218246
     27          1           0        5.028723   -1.455302   -1.516772
     28          7           0       -0.232373   -2.134087    1.636374
     29          1           0       -0.318818   -2.559238    2.543046
     30          6           0       -2.635022   -1.871046    1.861631
     31          1           0       -3.157356   -0.947545    2.097447
     32          1           0       -3.333209   -2.484366    1.295189
     33          1           0       -2.396502   -2.387722    2.793063
     34          6           0        2.029661   -3.004415    1.774066
     35          1           0        2.344964   -3.866730    1.189464
     36          1           0        2.927282   -2.426915    1.979376
     37          1           0        1.615606   -3.359144    2.719647
     38          1           0        0.001643   -0.903164   -1.805123
     39         17           0        0.532780    0.981518    2.038215
     40         17           0        1.279007    4.085628    1.664528
     41          6           0       -6.051200   -0.342280   -0.274728
     42          1           0       -6.936017   -0.009366   -0.821272
     43          1           0       -6.182722   -1.394953   -0.023304
     44          1           0       -5.988300    0.228872    0.651597
 ---------------------------------------------------------------------
 Rotational constants (GHZ):           0.2009761           0.1629672           0.1254659
 Leave Link  202 at Mon Jan 26 20:23:19 2026, MaxMem=  1073741824 cpu:               0.1 elap:               0.0
 (Enter /Users/yarger/Applications/g16/l301.exe)
 Standard basis: 6-311++G(2d,3p) (5D, 7F)
 Ernie: Thresh=  0.10000D-02 Tol=  0.10000D-05 Strict=F.
 There are   988 symmetry adapted cartesian basis functions of A   symmetry.
 There are   938 symmetry adapted basis functions of A   symmetry.
   938 basis functions,  1369 primitive gaussians,   988 cartesian basis functions
   100 alpha electrons      100 beta electrons
       nuclear repulsion energy      2621.2493732318 Hartrees.
 IExCor=  402 DFT=T Ex+Corr=B3LYP ExCW=0 ScaHFX=  0.200000
 ScaDFX=  0.800000  0.720000  1.000000  0.810000 ScalE2=  1.000000  1.000000
 IRadAn=      5 IRanWt=     -1 IRanGd=            0 ICorTp=0 IEmpDi=  4
 NAtoms=   44 NActive=   44 NUniq=   44 SFac= 1.00D+00 NAtFMM=   60 NAOKFM=F Big=F
 Integral buffers will be    131072 words long.
 Raffenetti 2 integral format.
 Two-electron integral symmetry is turned on.
 Leave Link  301 at Mon Jan 26 20:23:19 2026, MaxMem=  1073741824 cpu:               0.3 elap:               0.0
 (Enter /Users/yarger/Applications/g16/l302.exe)
 NPDir=0 NMtPBC=     1 NCelOv=     1 NCel=       1 NClECP=     1 NCelD=      1
         NCelK=      1 NCelE2=     1 NClLst=     1 CellRange=     0.0.
 One-electron integrals computed using PRISM.
 One-electron integral symmetry used in STVInt
 NBasis=   938 RedAO= T EigKep=  1.32D-06  NBF=   938
 NBsUse=   930 1.00D-06 EigRej=  6.95D-07 NBFU=   930
 Precomputing XC quadrature grid using
 IXCGrd= 4 IRadAn=           5 IRanWt=          -1 IRanGd=           0 AccXCQ= 0.00D+00.
 Generated NRdTot=       0 NPtTot=           0 NUsed=           0 NTot=          32
 NSgBfM=   961   961   961   961   961 MxSgAt=    44 MxSgA2=    44.
 Leave Link  302 at Mon Jan 26 20:23:21 2026, MaxMem=  1073741824 cpu:              10.3 elap:               1.4
 (Enter /Users/yarger/Applications/g16/l303.exe)
 DipDrv:  MaxL=1.
 Leave Link  303 at Mon Jan 26 20:23:21 2026, MaxMem=  1073741824 cpu:               0.7 elap:               0.1
 (Enter /Users/yarger/Applications/g16/l401.exe)
 ExpMin= 3.60D-02 ExpMax= 1.06D+05 ExpMxC= 3.62D+03 IAcc=3 IRadAn=         5 AccDes= 0.00D+00
 Harris functional with IExCor=  402 and IRadAn=       5 diagonalized for initial guess.
 HarFok:  IExCor=  402 AccDes= 0.00D+00 IRadAn=         5 IDoV= 1 UseB2=F ITyADJ=14
 ICtDFT=  3500011 ScaDFX=  1.000000  1.000000  1.000000  1.000000
 FoFCou: FMM=F IPFlag=           0 FMFlag=      100000 FMFlg1=           0
         NFxFlg=           0 DoJE=T BraDBF=F KetDBF=T FulRan=T
         wScrn=  0.000000 ICntrl=       500 IOpCl=  0 I1Cent=   200000004 NGrid=           0
         NMat0=    1 NMatS0=      1 NMatT0=    0 NMatD0=    1 NMtDS0=    0 NMtDT0=    0
 Petite list used in FoFCou.
 Harris En= -1973.72567591650    
 JPrj=0 DoOrth=F DoCkMO=F.
 Leave Link  401 at Mon Jan 26 20:23:29 2026, MaxMem=  1073741824 cpu:              55.6 elap:               7.1
 (Enter /Users/yarger/Applications/g16/l502.exe)
 Integral symmetry usage will be decided dynamically.
 Closed shell SCF:
 Using DIIS extrapolation, IDIIS=  1040.
 NGot=  1073741824 LenX=  1071772908 LenY=  1070795776
 Requested convergence on RMS density matrix=1.00D-08 within 128 cycles.
 Requested convergence on MAX density matrix=1.00D-06.
 Requested convergence on             energy=1.00D-06.
 No special actions if energy rises.
 Fock matrices will be formed incrementally for  20 cycles.

 Cycle   1  Pass 1  IDiag  1:
 FoFJK:  IHMeth= 1 ICntrl=       0 DoSepK=F KAlg= 0 I1Cent=           0 FoldK=F
 IRaf= 780000000 NMat=       1 IRICut=       1 DoRegI=T DoRafI=F ISym2E= 0 IDoP0=0 IntGTp=1.
 FoFCou: FMM=F IPFlag=           0 FMFlag=      100000 FMFlg1=           0
         NFxFlg=           0 DoJE=F BraDBF=F KetDBF=F FulRan=T
         wScrn=  0.000000 ICntrl=         0 IOpCl=  0 I1Cent=           0 NGrid=           0
         NMat0=    1 NMatS0=      1 NMatT0=    0 NMatD0=    1 NMtDS0=    0 NMtDT0=    0
 Symmetry not used in FoFCou.
 E= -1973.06884835736    
 DIIS: error= 2.00D-02 at cycle   1 NSaved=   1.
 NSaved= 1 IEnMin= 1 EnMin= -1973.06884835736     IErMin= 1 ErrMin= 2.00D-02
 ErrMax= 2.00D-02  0.00D+00 EMaxC= 1.00D-01 BMatC= 8.80D-01 BMatP= 8.80D-01
 IDIUse=3 WtCom= 8.00D-01 WtEn= 2.00D-01
 Coeff-Com:  0.100D+01
 Coeff-En:   0.100D+01
 Coeff:      0.100D+01
 Gap=     0.372 Goal=   None    Shift=    0.000
 GapD=    0.372 DampG=1.000 DampE=0.500 DampFc=0.5000 IDamp=-1.
 Damping current iteration by 5.00D-01
 RMSDP=1.87D-02 MaxDP=2.26D+00              OVMax= 4.21D-01

 Cycle   2  Pass 1  IDiag  1:
 RMSU=  7.99D-03    CP:  1.22D+00
 E= -1973.16518179762     Delta-E=       -0.096333440257 Rises=F Damp=T
 DIIS: error= 7.84D-03 at cycle   2 NSaved=   2.
 NSaved= 2 IEnMin= 2 EnMin= -1973.16518179762     IErMin= 2 ErrMin= 7.84D-03
 ErrMax= 7.84D-03  0.00D+00 EMaxC= 1.00D-01 BMatC= 1.91D-01 BMatP= 8.80D-01
 IDIUse=3 WtCom= 9.22D-01 WtEn= 7.84D-02
 Coeff-Com:  0.241D+00 0.759D+00
 Coeff-En:   0.437D+00 0.563D+00
 Coeff:      0.257D+00 0.743D+00
 Gap=     0.297 Goal=   None    Shift=    0.000
 RMSDP=8.63D-03 MaxDP=9.48D-01 DE=-9.63D-02 OVMax= 3.22D-01

 Cycle   3  Pass 1  IDiag  1:
 RMSU=  2.69D-03    CP:  1.03D+00  1.11D-01
 E= -1973.56638616793     Delta-E=       -0.401204370313 Rises=F Damp=F
 DIIS: error= 1.09D-02 at cycle   3 NSaved=   3.
 NSaved= 3 IEnMin= 3 EnMin= -1973.56638616793     IErMin= 2 ErrMin= 7.84D-03
 ErrMax= 1.09D-02  0.00D+00 EMaxC= 1.00D-01 BMatC= 2.45D-01 BMatP= 1.91D-01
 IDIUse=2 WtCom= 0.00D+00 WtEn= 1.00D+00
 Coeff-En:   0.000D+00 0.962D-01 0.904D+00
 Coeff:      0.000D+00 0.962D-01 0.904D+00
 Gap=     0.173 Goal=   None    Shift=    0.000
 RMSDP=6.19D-03 MaxDP=8.02D-01 DE=-4.01D-01 OVMax= 4.71D-01

 Cycle   4  Pass 1  IDiag  1:
 RMSU=  3.07D-03    CP:  1.10D+00  7.05D-01  2.28D-01
 E= -1972.52277563000     Delta-E=        1.043610537925 Rises=F Damp=F
 DIIS: error= 2.16D-02 at cycle   4 NSaved=   4.
 NSaved= 4 IEnMin= 3 EnMin= -1973.56638616793     IErMin= 2 ErrMin= 7.84D-03
 ErrMax= 2.16D-02  0.00D+00 EMaxC= 1.00D-01 BMatC= 1.43D+00 BMatP= 1.91D-01
 IDIUse=2 WtCom= 0.00D+00 WtEn= 1.00D+00
 Coeff-En:   0.000D+00 0.000D+00 0.784D+00 0.216D+00
 Coeff:      0.000D+00 0.000D+00 0.784D+00 0.216D+00
 Gap=     0.149 Goal=   None    Shift=    0.000
 RMSDP=3.98D-03 MaxDP=6.10D-01 DE= 1.04D+00 OVMax= 2.76D-01

 Cycle   5  Pass 1  IDiag  1:
 RMSU=  7.99D-04    CP:  1.04D+00  3.24D-01  6.10D-01  4.04D-01
 E= -1973.69668520400     Delta-E=       -1.173909573998 Rises=F Damp=F
 DIIS: error= 5.88D-03 at cycle   5 NSaved=   5.
 NSaved= 5 IEnMin= 5 EnMin= -1973.69668520400     IErMin= 5 ErrMin= 5.88D-03
 ErrMax= 5.88D-03  0.00D+00 EMaxC= 1.00D-01 BMatC= 1.01D-01 BMatP= 1.91D-01
 IDIUse=3 WtCom= 9.41D-01 WtEn= 5.88D-02
 Coeff-Com: -0.153D-02 0.339D-01 0.325D+00-0.664D-01 0.709D+00
 Coeff-En:   0.000D+00 0.000D+00 0.343D+00 0.000D+00 0.657D+00
 Coeff:     -0.144D-02 0.319D-01 0.326D+00-0.625D-01 0.706D+00
 Gap=     0.155 Goal=   None    Shift=    0.000
 RMSDP=1.14D-03 MaxDP=9.54D-02 DE=-1.17D+00 OVMax= 7.22D-02

 Cycle   6  Pass 1  IDiag  1:
 RMSU=  2.77D-04    CP:  1.03D+00  2.24D-01  8.05D-01  2.53D-01  6.85D-01
 E= -1973.78462430517     Delta-E=       -0.087939101169 Rises=F Damp=F
 DIIS: error= 9.57D-04 at cycle   6 NSaved=   6.
 NSaved= 6 IEnMin= 6 EnMin= -1973.78462430517     IErMin= 6 ErrMin= 9.57D-04
 ErrMax= 9.57D-04  0.00D+00 EMaxC= 1.00D-01 BMatC= 1.91D-03 BMatP= 1.01D-01
 IDIUse=3 WtCom= 9.90D-01 WtEn= 9.57D-03
 Coeff-Com: -0.326D-02 0.162D-01 0.173D+00-0.563D-01 0.446D+00 0.424D+00
 Coeff-En:   0.000D+00 0.000D+00 0.000D+00 0.000D+00 0.000D+00 0.100D+01
 Coeff:     -0.323D-02 0.160D-01 0.172D+00-0.558D-01 0.442D+00 0.429D+00
 Gap=     0.150 Goal=   None    Shift=    0.000
 RMSDP=2.14D-04 MaxDP=2.04D-02 DE=-8.79D-02 OVMax= 1.84D-02

 Cycle   7  Pass 1  IDiag  1:
 RMSU=  1.07D-04    CP:  1.03D+00  2.31D-01  7.75D-01  2.52D-01  7.87D-01
                    CP:  6.25D-01
 E= -1973.78629337602     Delta-E=       -0.001669070845 Rises=F Damp=F
 DIIS: error= 2.90D-04 at cycle   7 NSaved=   7.
 NSaved= 7 IEnMin= 7 EnMin= -1973.78629337602     IErMin= 7 ErrMin= 2.90D-04
 ErrMax= 2.90D-04  0.00D+00 EMaxC= 1.00D-01 BMatC= 2.02D-04 BMatP= 1.91D-03
 IDIUse=3 WtCom= 9.97D-01 WtEn= 2.90D-03
 Coeff-Com: -0.582D-03 0.392D-02 0.582D-01-0.228D-01 0.146D+00 0.219D+00
 Coeff-Com:  0.596D+00
 Coeff-En:   0.000D+00 0.000D+00 0.000D+00 0.000D+00 0.000D+00 0.241D-01
 Coeff-En:   0.976D+00
 Coeff:     -0.580D-03 0.391D-02 0.580D-01-0.227D-01 0.146D+00 0.219D+00
 Coeff:      0.597D+00
 Gap=     0.151 Goal=   None    Shift=    0.000
 RMSDP=9.95D-05 MaxDP=1.94D-02 DE=-1.67D-03 OVMax= 4.58D-03

 Cycle   8  Pass 1  IDiag  1:
 RMSU=  4.52D-05    CP:  1.03D+00  2.29D-01  7.84D-01  2.41D-01  7.95D-01
                    CP:  6.48D-01  5.75D-01
 E= -1973.78647522814     Delta-E=       -0.000181852119 Rises=F Damp=F
 DIIS: error= 1.25D-04 at cycle   8 NSaved=   8.
 NSaved= 8 IEnMin= 8 EnMin= -1973.78647522814     IErMin= 8 ErrMin= 1.25D-04
 ErrMax= 1.25D-04  0.00D+00 EMaxC= 1.00D-01 BMatC= 4.08D-05 BMatP= 2.02D-04
 IDIUse=3 WtCom= 9.99D-01 WtEn= 1.25D-03
 Coeff-Com:  0.755D-03-0.236D-02 0.959D-02-0.312D-02 0.118D-01 0.580D-01
 Coeff-Com:  0.390D+00 0.535D+00
 Coeff-En:   0.000D+00 0.000D+00 0.000D+00 0.000D+00 0.000D+00 0.000D+00
 Coeff-En:   0.657D-01 0.934D+00
 Coeff:      0.754D-03-0.236D-02 0.958D-02-0.312D-02 0.118D-01 0.579D-01
 Coeff:      0.390D+00 0.536D+00
 Gap=     0.150 Goal=   None    Shift=    0.000
 RMSDP=5.03D-05 MaxDP=1.08D-02 DE=-1.82D-04 OVMax= 1.36D-03

 Cycle   9  Pass 1  IDiag  1:
 RMSU=  1.30D-05    CP:  1.03D+00  2.28D-01  7.84D-01  2.44D-01  7.82D-01
                    CP:  6.60D-01  7.62D-01  5.07D-01
 E= -1973.78651348165     Delta-E=       -0.000038253514 Rises=F Damp=F
 DIIS: error= 1.93D-05 at cycle   9 NSaved=   9.
 NSaved= 9 IEnMin= 9 EnMin= -1973.78651348165     IErMin= 9 ErrMin= 1.93D-05
 ErrMax= 1.93D-05  0.00D+00 EMaxC= 1.00D-01 BMatC= 1.39D-06 BMatP= 4.08D-05
 IDIUse=1 WtCom= 1.00D+00 WtEn= 0.00D+00
 Coeff-Com:  0.484D-03-0.157D-02 0.158D-02-0.127D-03-0.289D-02 0.184D-01
 Coeff-Com:  0.168D+00 0.275D+00 0.541D+00
 Coeff:      0.484D-03-0.157D-02 0.158D-02-0.127D-03-0.289D-02 0.184D-01
 Coeff:      0.168D+00 0.275D+00 0.541D+00
 Gap=     0.150 Goal=   None    Shift=    0.000
 RMSDP=5.29D-06 MaxDP=5.69D-04 DE=-3.83D-05 OVMax= 2.95D-04

 Cycle  10  Pass 1  IDiag  1:
 RMSU=  3.37D-06    CP:  1.03D+00  2.27D-01  7.84D-01  2.44D-01  7.82D-01
                    CP:  6.62D-01  7.53D-01  5.29D-01  8.36D-01
 E= -1973.78651436110     Delta-E=       -0.000000879456 Rises=F Damp=F
 DIIS: error= 7.87D-06 at cycle  10 NSaved=  10.
 NSaved=10 IEnMin=10 EnMin= -1973.78651436110     IErMin=10 ErrMin= 7.87D-06
 ErrMax= 7.87D-06  0.00D+00 EMaxC= 1.00D-01 BMatC= 3.03D-07 BMatP= 1.39D-06
 IDIUse=1 WtCom= 1.00D+00 WtEn= 0.00D+00
 Coeff-Com:  0.150D-03-0.405D-03-0.474D-03 0.242D-03-0.295D-02 0.393D-02
 Coeff-Com:  0.413D-01 0.815D-01 0.335D+00 0.542D+00
 Coeff:      0.150D-03-0.405D-03-0.474D-03 0.242D-03-0.295D-02 0.393D-02
 Coeff:      0.413D-01 0.815D-01 0.335D+00 0.542D+00
 Gap=     0.150 Goal=   None    Shift=    0.000
 RMSDP=2.16D-06 MaxDP=1.76D-04 DE=-8.79D-07 OVMax= 1.50D-04

 Cycle  11  Pass 1  IDiag  1:
 RMSU=  1.60D-06    CP:  1.03D+00  2.27D-01  7.84D-01  2.44D-01  7.82D-01
                    CP:  6.63D-01  7.52D-01  5.35D-01  8.23D-01  7.03D-01
 E= -1973.78651459235     Delta-E=       -0.000000231244 Rises=F Damp=F
 DIIS: error= 4.55D-06 at cycle  11 NSaved=  11.
 NSaved=11 IEnMin=11 EnMin= -1973.78651459235     IErMin=11 ErrMin= 4.55D-06
 ErrMax= 4.55D-06  0.00D+00 EMaxC= 1.00D-01 BMatC= 4.66D-08 BMatP= 3.03D-07
 IDIUse=1 WtCom= 1.00D+00 WtEn= 0.00D+00
 Coeff-Com:  0.498D-04-0.106D-03-0.506D-03 0.162D-03-0.175D-02 0.143D-02
 Coeff-Com:  0.134D-01 0.309D-01 0.178D+00 0.356D+00 0.423D+00
 Coeff:      0.498D-04-0.106D-03-0.506D-03 0.162D-03-0.175D-02 0.143D-02
 Coeff:      0.134D-01 0.309D-01 0.178D+00 0.356D+00 0.423D+00
 Gap=     0.150 Goal=   None    Shift=    0.000
 RMSDP=1.21D-06 MaxDP=1.11D-04 DE=-2.31D-07 OVMax= 5.31D-05

 Cycle  12  Pass 1  IDiag  1:
 RMSU=  4.57D-07    CP:  1.03D+00  2.27D-01  7.84D-01  2.44D-01  7.82D-01
                    CP:  6.63D-01  7.55D-01  5.28D-01  8.33D-01  7.95D-01
                    CP:  6.23D-01
 E= -1973.78651463027     Delta-E=       -0.000000037919 Rises=F Damp=F
 DIIS: error= 1.09D-06 at cycle  12 NSaved=  12.
 NSaved=12 IEnMin=12 EnMin= -1973.78651463027     IErMin=12 ErrMin= 1.09D-06
 ErrMax= 1.09D-06  0.00D+00 EMaxC= 1.00D-01 BMatC= 4.40D-09 BMatP= 4.66D-08
 IDIUse=1 WtCom= 1.00D+00 WtEn= 0.00D+00
 Coeff-Com: -0.333D-05 0.592D-05-0.232D-03 0.694D-04-0.526D-03 0.336D-03
 Coeff-Com:  0.445D-03 0.361D-02 0.432D-01 0.105D+00 0.225D+00 0.624D+00
 Coeff:     -0.333D-05 0.592D-05-0.232D-03 0.694D-04-0.526D-03 0.336D-03
 Coeff:      0.445D-03 0.361D-02 0.432D-01 0.105D+00 0.225D+00 0.624D+00
 Gap=     0.150 Goal=   None    Shift=    0.000
 RMSDP=2.42D-07 MaxDP=2.28D-05 DE=-3.79D-08 OVMax= 1.05D-05

 Cycle  13  Pass 1  IDiag  1:
 RMSU=  1.28D-07    CP:  1.03D+00  2.27D-01  7.84D-01  2.44D-01  7.82D-01
                    CP:  6.63D-01  7.54D-01  5.30D-01  8.34D-01  7.80D-01
                    CP:  6.66D-01  8.49D-01
 E= -1973.78651463361     Delta-E=       -0.000000003339 Rises=F Damp=F
 DIIS: error= 5.15D-07 at cycle  13 NSaved=  13.
 NSaved=13 IEnMin=13 EnMin= -1973.78651463361     IErMin=13 ErrMin= 5.15D-07
 ErrMax= 5.15D-07  0.00D+00 EMaxC= 1.00D-01 BMatC= 5.97D-10 BMatP= 4.40D-09
 IDIUse=1 WtCom= 1.00D+00 WtEn= 0.00D+00
 Coeff-Com: -0.963D-05 0.186D-04-0.765D-04 0.179D-04-0.886D-04 0.136D-03
 Coeff-Com: -0.933D-03-0.101D-02 0.528D-02 0.196D-01 0.767D-01 0.325D+00
 Coeff-Com:  0.575D+00
 Coeff:     -0.963D-05 0.186D-04-0.765D-04 0.179D-04-0.886D-04 0.136D-03
 Coeff:     -0.933D-03-0.101D-02 0.528D-02 0.196D-01 0.767D-01 0.325D+00
 Coeff:      0.575D+00
 Gap=     0.150 Goal=   None    Shift=    0.000
 RMSDP=1.14D-07 MaxDP=1.52D-05 DE=-3.34D-09 OVMax= 6.01D-06

 Cycle  14  Pass 1  IDiag  1:
 RMSU=  6.02D-08    CP:  1.03D+00  2.27D-01  7.84D-01  2.44D-01  7.82D-01
                    CP:  6.63D-01  7.54D-01  5.29D-01  8.36D-01  7.84D-01
                    CP:  6.68D-01  8.48D-01  8.51D-01
 E= -1973.78651463388     Delta-E=       -0.000000000277 Rises=F Damp=F
 DIIS: error= 1.51D-07 at cycle  14 NSaved=  14.
 NSaved=14 IEnMin=14 EnMin= -1973.78651463388     IErMin=14 ErrMin= 1.51D-07
 ErrMax= 1.51D-07  0.00D+00 EMaxC= 1.00D-01 BMatC= 8.16D-11 BMatP= 5.97D-10
 IDIUse=1 WtCom= 1.00D+00 WtEn= 0.00D+00
 Coeff-Com: -0.533D-05 0.103D-04-0.139D-04 0.119D-05 0.186D-04 0.249D-04
 Coeff-Com: -0.541D-03-0.108D-02-0.400D-02-0.609D-02 0.572D-02 0.710D-01
 Coeff-Com:  0.328D+00 0.607D+00
 Coeff:     -0.533D-05 0.103D-04-0.139D-04 0.119D-05 0.186D-04 0.249D-04
 Coeff:     -0.541D-03-0.108D-02-0.400D-02-0.609D-02 0.572D-02 0.710D-01
 Coeff:      0.328D+00 0.607D+00
 Gap=     0.150 Goal=   None    Shift=    0.000
 RMSDP=3.80D-08 MaxDP=6.83D-06 DE=-2.77D-10 OVMax= 2.94D-06

 Cycle  15  Pass 1  IDiag  1:
 RMSU=  1.75D-08    CP:  1.03D+00  2.27D-01  7.84D-01  2.44D-01  7.82D-01
                    CP:  6.63D-01  7.54D-01  5.29D-01  8.35D-01  7.86D-01
                    CP:  6.70D-01  8.74D-01  9.18D-01  7.00D-01
 E= -1973.78651463387     Delta-E=        0.000000000011 Rises=F Damp=F
 DIIS: error= 4.69D-08 at cycle  15 NSaved=  15.
 NSaved=15 IEnMin=14 EnMin= -1973.78651463388     IErMin=15 ErrMin= 4.69D-08
 ErrMax= 4.69D-08  0.00D+00 EMaxC= 1.00D-01 BMatC= 9.57D-12 BMatP= 8.16D-11
 IDIUse=1 WtCom= 1.00D+00 WtEn= 0.00D+00
 Coeff-Com: -0.261D-05 0.504D-05-0.434D-05-0.831D-07 0.150D-04 0.321D-05
 Coeff-Com: -0.259D-03-0.588D-03-0.283D-02-0.516D-02-0.212D-02 0.189D-01
 Coeff-Com:  0.160D+00 0.381D+00 0.451D+00
 Coeff:     -0.261D-05 0.504D-05-0.434D-05-0.831D-07 0.150D-04 0.321D-05
 Coeff:     -0.259D-03-0.588D-03-0.283D-02-0.516D-02-0.212D-02 0.189D-01
 Coeff:      0.160D+00 0.381D+00 0.451D+00
 Gap=     0.150 Goal=   None    Shift=    0.000
 RMSDP=1.24D-08 MaxDP=8.86D-07 DE= 1.09D-11 OVMax= 8.84D-07

 Cycle  16  Pass 1  IDiag  1:
 RMSU=  8.25D-09    CP:  1.03D+00  2.27D-01  7.84D-01  2.44D-01  7.82D-01
                    CP:  6.63D-01  7.54D-01  5.29D-01  8.35D-01  7.85D-01
                    CP:  6.72D-01  8.72D-01  9.24D-01  7.30D-01  6.05D-01
 E= -1973.78651463400     Delta-E=       -0.000000000131 Rises=F Damp=F
 DIIS: error= 2.08D-08 at cycle  16 NSaved=  16.
 NSaved=16 IEnMin=16 EnMin= -1973.78651463400     IErMin=16 ErrMin= 2.08D-08
 ErrMax= 2.08D-08  0.00D+00 EMaxC= 1.00D-01 BMatC= 1.18D-12 BMatP= 9.57D-12
 IDIUse=1 WtCom= 1.00D+00 WtEn= 0.00D+00
 Coeff-Com: -0.544D-06 0.110D-05-0.447D-06-0.252D-06 0.440D-05-0.154D-05
 Coeff-Com: -0.370D-04-0.122D-03-0.846D-03-0.177D-02-0.202D-02-0.150D-02
 Coeff-Com:  0.322D-01 0.109D+00 0.281D+00 0.584D+00
 Coeff:     -0.544D-06 0.110D-05-0.447D-06-0.252D-06 0.440D-05-0.154D-05
 Coeff:     -0.370D-04-0.122D-03-0.846D-03-0.177D-02-0.202D-02-0.150D-02
 Coeff:      0.322D-01 0.109D+00 0.281D+00 0.584D+00
 Gap=     0.150 Goal=   None    Shift=    0.000
 RMSDP=6.00D-09 MaxDP=6.71D-07 DE=-1.31D-10 OVMax= 3.27D-07

 SCF Done:  E(RB3LYP) =  -1973.78651463     A.U. after   16 cycles
            NFock= 16  Conv=0.60D-08     -V/T= 2.0037
 KE= 1.966589276475D+03 PE=-9.887988042914D+03 EE= 3.326362878573D+03
 Leave Link  502 at Mon Jan 26 20:43:02 2026, MaxMem=  1073741824 cpu:            9143.3 elap:            1173.2
 (Enter /Users/yarger/Applications/g16/l601.exe)
 Copying SCF densities to generalized density rwf, IOpCl= 0 IROHF=0.

 **********************************************************************

            Population analysis using the SCF density.

 **********************************************************************

 Orbital symmetries:
       Occupied  (A) (A) (A) (A) (A) (A) (A) (A) (A) (A) (A) (A)
                 (A) (A) (A) (A) (A) (A) (A) (A) (A) (A) (A) (A)
                 (A) (A) (A) (A) (A) (A) (A) (A) (A) (A) (A) (A)
                 (A) (A) (A) (A) (A) (A) (A) (A) (A) (A) (A) (A)
                 (A) (A) (A) (A) (A) (A) (A) (A) (A) (A) (A) (A)
                 (A) (A) (A) (A) (A) (A) (A) (A) (A) (A) (A) (A)
                 (A) (A) (A) (A) (A) (A) (A) (A) (A) (A) (A) (A)
                 (A) (A) (A) (A) (A) (A) (A) (A) (A) (A) (A) (A)
                 (A) (A) (A) (A)
       Virtual   (A) (A) (A) (A) (A) (A) (A) (A) (A) (A) (A) (A)
                 (A) (A) (A) (A) (A) (A) (A) (A) (A) (A) (A) (A)
                 (A) (A) (A) (A) (A) (A) (A) (A) (A) (A) (A) (A)
                 (A) (A) (A) (A) (A) (A) (A) (A) (A) (A) (A) (A)
                 (A) (A) (A) (A) (A) (A) (A) (A) (A) (A) (A) (A)
                 (A) (A) (A) (A) (A) (A) (A) (A) (A) (A) (A) (A)
                 (A) (A) (A) (A) (A) (A) (A) (A) (A) (A) (A) (A)
                 (A) (A) (A) (A) (A) (A) (A) (A) (A) (A) (A) (A)
                 (A) (A) (A) (A) (A) (A) (A) (A) (A) (A) (A) (A)
                 (A) (A) (A) (A) (A) (A) (A) (A) (A) (A) (A) (A)
                 (A) (A) (A) (A) (A) (A) (A) (A) (A) (A) (A) (A)
                 (A) (A) (A) (A) (A) (A) (A) (A) (A) (A) (A) (A)
                 (A) (A) (A) (A) (A) (A) (A) (A) (A) (A) (A) (A)
                 (A) (A) (A) (A) (A) (A) (A) (A) (A) (A) (A) (A)
                 (A) (A) (A) (A) (A) (A) (A) (A) (A) (A) (A) (A)
                 (A) (A) (A) (A) (A) (A) (A) (A) (A) (A) (A) (A)
                 (A) (A) (A) (A) (A) (A) (A) (A) (A) (A) (A) (A)
                 (A) (A) (A) (A) (A) (A) (A) (A) (A) (A) (A) (A)
                 (A) (A) (A) (A) (A) (A) (A) (A) (A) (A) (A) (A)
                 (A) (A) (A) (A) (A) (A) (A) (A) (A) (A) (A) (A)
                 (A) (A) (A) (A) (A) (A) (A) (A) (A) (A) (A) (A)
                 (A) (A) (A) (A) (A) (A) (A) (A) (A) (A) (A) (A)
                 (A) (A) (A) (A) (A) (A) (A) (A) (A) (A) (A) (A)
                 (A) (A) (A) (A) (A) (A) (A) (A) (A) (A) (A) (A)
                 (A) (A) (A) (A) (A) (A) (A) (A) (A) (A) (A) (A)
                 (A) (A) (A) (A) (A) (A) (A) (A) (A) (A) (A) (A)
                 (A) (A) (A) (A) (A) (A) (A) (A) (A) (A) (A) (A)
                 (A) (A) (A) (A) (A) (A) (A) (A) (A) (A) (A) (A)
                 (A) (A) (A) (A) (A) (A) (A) (A) (A) (A) (A) (A)
                 (A) (A) (A) (A) (A) (A) (A) (A) (A) (A) (A) (A)
                 (A) (A) (A) (A) (A) (A) (A) (A) (A) (A) (A) (A)
                 (A) (A) (A) (A) (A) (A) (A) (A) (A) (A) (A) (A)
                 (A) (A) (A) (A) (A) (A) (A) (A) (A) (A) (A) (A)
                 (A) (A) (A) (A) (A) (A) (A) (A) (A) (A) (A) (A)
                 (A) (A) (A) (A) (A) (A) (A) (A) (A) (A) (A) (A)
                 (A) (A) (A) (A) (A) (A) (A) (A) (A) (A) (A) (A)
                 (A) (A) (A) (A) (A) (A) (A) (A) (A) (A) (A) (A)
                 (A) (A) (A) (A) (A) (A) (A) (A) (A) (A) (A) (A)
                 (A) (A) (A) (A) (A) (A) (A) (A) (A) (A) (A) (A)
                 (A) (A) (A) (A) (A) (A) (A) (A) (A) (A) (A) (A)
                 (A) (A) (A) (A) (A) (A) (A) (A) (A) (A) (A) (A)
                 (A) (A) (A) (A) (A) (A) (A) (A) (A) (A) (A) (A)
                 (A) (A) (A) (A) (A) (A) (A) (A) (A) (A) (A) (A)
                 (A) (A) (A) (A) (A) (A) (A) (A) (A) (A) (A) (A)
                 (A) (A) (A) (A) (A) (A) (A) (A) (A) (A) (A) (A)
                 (A) (A) (A) (A) (A) (A) (A) (A) (A) (A) (A) (A)
                 (A) (A) (A) (A) (A) (A) (A) (A) (A) (A) (A) (A)
                 (A) (A) (A) (A) (A) (A) (A) (A) (A) (A) (A) (A)
                 (A) (A) (A) (A) (A) (A) (A) (A) (A) (A) (A) (A)
                 (A) (A) (A) (A) (A) (A) (A) (A) (A) (A) (A) (A)
                 (A) (A) (A) (A) (A) (A) (A) (A) (A) (A) (A) (A)
                 (A) (A) (A) (A) (A) (A) (A) (A) (A) (A) (A) (A)
                 (A) (A) (A) (A) (A) (A) (A) (A) (A) (A) (A) (A)
                 (A) (A) (A) (A) (A) (A) (A) (A) (A) (A) (A) (A)
                 (A) (A) (A) (A) (A) (A) (A) (A) (A) (A) (A) (A)
                 (A) (A) (A) (A) (A) (A) (A) (A) (A) (A) (A) (A)
                 (A) (A) (A) (A) (A) (A) (A) (A) (A) (A) (A) (A)
                 (A) (A) (A) (A) (A) (A) (A) (A) (A) (A) (A) (A)
                 (A) (A) (A) (A) (A) (A) (A) (A) (A) (A) (A) (A)
                 (A) (A) (A) (A) (A) (A) (A) (A) (A) (A) (A) (A)
                 (A) (A) (A) (A) (A) (A) (A) (A) (A) (A) (A) (A)
                 (A) (A) (A) (A) (A) (A) (A) (A) (A) (A) (A) (A)
                 (A) (A) (A) (A) (A) (A) (A) (A) (A) (A) (A) (A)
                 (A) (A) (A) (A) (A) (A) (A) (A) (A) (A) (A) (A)
                 (A) (A) (A) (A) (A) (A) (A) (A) (A) (A) (A) (A)
                 (A) (A) (A) (A) (A) (A) (A) (A) (A) (A) (A) (A)
                 (A) (A) (A) (A) (A) (A) (A) (A) (A) (A) (A) (A)
                 (A) (A) (A) (A) (A) (A) (A) (A) (A) (A) (A) (A)
                 (A) (A) (A) (A) (A) (A) (A) (A) (A) (A) (A) (A)
                 (A) (A)
 The electronic state is 1-A.
 Alpha  occ. eigenvalues -- -101.54977-101.54831 -19.16365 -19.16040 -19.10260
 Alpha  occ. eigenvalues --  -19.10103 -14.37873 -10.29973 -10.29894 -10.25164
 Alpha  occ. eigenvalues --  -10.25121 -10.24744 -10.24500 -10.22904 -10.22349
 Alpha  occ. eigenvalues --  -10.20079 -10.19807 -10.19075 -10.19055 -10.18935
 Alpha  occ. eigenvalues --  -10.18927 -10.18718 -10.18045 -10.17629 -10.17219
 Alpha  occ. eigenvalues --   -9.46347  -9.46142  -7.22818  -7.22627  -7.21850
 Alpha  occ. eigenvalues --   -7.21787  -7.21636  -7.21593  -1.08363  -1.08110
 Alpha  occ. eigenvalues --   -0.99841  -0.99657  -0.99417  -0.89984  -0.84425
 Alpha  occ. eigenvalues --   -0.83471  -0.83320  -0.82023  -0.77772  -0.76107
 Alpha  occ. eigenvalues --   -0.74237  -0.74031  -0.73129  -0.71174  -0.67432
 Alpha  occ. eigenvalues --   -0.65974  -0.63796  -0.61377  -0.60209  -0.59752
 Alpha  occ. eigenvalues --   -0.56289  -0.54025  -0.53806  -0.51519  -0.50686
 Alpha  occ. eigenvalues --   -0.49610  -0.48960  -0.47899  -0.47334  -0.47020
 Alpha  occ. eigenvalues --   -0.46435  -0.46274  -0.45373  -0.44699  -0.44022
 Alpha  occ. eigenvalues --   -0.43261  -0.42858  -0.42644  -0.42380  -0.41885
 Alpha  occ. eigenvalues --   -0.41406  -0.41086  -0.40439  -0.40226  -0.39806
 Alpha  occ. eigenvalues --   -0.38757  -0.37874  -0.37248  -0.36753  -0.36320
 Alpha  occ. eigenvalues --   -0.35922  -0.35284  -0.34961  -0.33528  -0.32648
 Alpha  occ. eigenvalues --   -0.32303  -0.30318  -0.30072  -0.29743  -0.27943
 Alpha  occ. eigenvalues --   -0.27468  -0.27385  -0.25383  -0.24576  -0.22102
 Alpha virt. eigenvalues --   -0.07056  -0.03103  -0.02391  -0.02115  -0.01787
 Alpha virt. eigenvalues --   -0.01739  -0.00913  -0.00503   0.00716   0.00947
 Alpha virt. eigenvalues --    0.01306   0.01737   0.02195   0.02317   0.02639
 Alpha virt. eigenvalues --    0.02945   0.03210   0.03792   0.03922   0.04310
 Alpha virt. eigenvalues --    0.04868   0.05021   0.05349   0.05607   0.05971
 Alpha virt. eigenvalues --    0.06445   0.06744   0.06795   0.06934   0.07281
 Alpha virt. eigenvalues --    0.07397   0.07801   0.08265   0.08519   0.08743
 Alpha virt. eigenvalues --    0.09075   0.09332   0.09731   0.10052   0.10163
 Alpha virt. eigenvalues --    0.10718   0.10768   0.11138   0.11341   0.11539
 Alpha virt. eigenvalues --    0.11594   0.11763   0.11876   0.12251   0.12591
 Alpha virt. eigenvalues --    0.12617   0.12739   0.12808   0.13092   0.13243
 Alpha virt. eigenvalues --    0.13470   0.13667   0.13887   0.14159   0.14332
 Alpha virt. eigenvalues --    0.14463   0.14802   0.14878   0.15099   0.15429
 Alpha virt. eigenvalues --    0.15670   0.15921   0.16119   0.16225   0.16598
 Alpha virt. eigenvalues --    0.16977   0.17134   0.17572   0.17657   0.17900
 Alpha virt. eigenvalues --    0.18188   0.18236   0.18545   0.18761   0.18893
 Alpha virt. eigenvalues --    0.19227   0.19604   0.20110   0.20391   0.20580
 Alpha virt. eigenvalues --    0.20704   0.20942   0.21140   0.21434   0.21817
 Alpha virt. eigenvalues --    0.22050   0.22363   0.22737   0.23211   0.23426
 Alpha virt. eigenvalues --    0.23660   0.23895   0.24081   0.24615   0.24694
 Alpha virt. eigenvalues --    0.24898   0.25415   0.25561   0.25626   0.26096
 Alpha virt. eigenvalues --    0.26183   0.26540   0.26967   0.27055   0.27479
 Alpha virt. eigenvalues --    0.27825   0.28045   0.28310   0.28332   0.28597
 Alpha virt. eigenvalues --    0.29061   0.29180   0.29522   0.29659   0.30176
 Alpha virt. eigenvalues --    0.30580   0.30640   0.30986   0.31456   0.31729
 Alpha virt. eigenvalues --    0.32047   0.32343   0.32396   0.32664   0.33147
 Alpha virt. eigenvalues --    0.33837   0.33904   0.34268   0.34515   0.34709
 Alpha virt. eigenvalues --    0.34826   0.35288   0.35331   0.35473   0.36060
 Alpha virt. eigenvalues --    0.36409   0.36601   0.36730   0.37424   0.37464
 Alpha virt. eigenvalues --    0.37964   0.38241   0.38325   0.38659   0.38909
[...]
 2793,0.00004102,-0.00005876,-0.00026768,0.00006951,0.00120000,0.004821
 71,0.00350925,0.02180501,0.08323816,0.16119689,-0.00000181,-0.00003069
 ,-0.00000478,-0.00000508,0.00005768,-0.00000814,-0.00000027,-0.0000027
 0,-0.00000233,0.00000244,0.00001579,0.00002862,-0.00000016,-0.00002386
 ,-0.00000936,0.00000455,0.00000443,0.00000708,-0.00000719,0.00000732,-
 0.00000447,-0.00000288,-0.00000176,0.00000049,-0.00000533,-0.00000568,
 0.00000408,-0.00017984,0.00020305,-0.00026587,-0.00013337,-0.00008718,
 0.00014909,-0.00108829,-0.00028499,0.00088186,0.00009837,0.00001763,-0
 .00007139,0.00016930,-0.00004696,0.00000399,-0.00093997,0.00230634,-0.
 00566671,0.00087733,-0.00055290,0.00163066,-0.04363554,0.00243163,0.01
 265588,0.00010894,0.00001240,-0.00010296,-0.00004305,-0.00001441,0.000
 06101,-0.00009260,0.00002699,0.00001779,-0.14798256,-0.01103789,0.0585
 6892,-0.00461471,-0.00094553,0.00481605,0.00222964,0.00009253,0.000855
 00,0.00002745,-0.00000163,-0.00002059,-0.00000553,0.00000215,0.0000000
 6,-0.00000292,0.00000091,0.00000443,-0.00000352,-0.00000137,0.00000351
 ,-0.00019548,0.00001825,-0.00000366,0.00001086,0.00000087,0.00000668,-
 0.00008019,0.00006062,0.00004710,0.00005630,0.00005365,0.00004904,0.00
 006921,-0.00011943,-0.00004508,-0.00004861,0.00000163,-0.00001717,-0.0
 0000741,0.00000123,0.00000394,-0.00000432,0.00000288,-0.00000062,-0.00
 000492,0.00000191,-0.00000070,0.00000282,-0.00000046,-0.00000024,0.000
 01269,-0.00000910,0.00000746,-0.00000425,-0.00000232,0.00000828,-0.000
 00310,-0.00001987,-0.00001567,0.50972545,0.00000076,0.00000982,-0.0000
 0627,-0.00000070,-0.00002143,0.00000542,-0.00000135,-0.00002017,0.0000
 2781,0.00000526,0.00001107,0.00000409,-0.00000146,0.00001394,0.0000093
 5,-0.00000756,-0.00000139,-0.00000941,0.00000191,-0.00000558,0.0000001
 8,0.00000197,0.00000123,0.00000073,0.00000775,0.00000238,-0.00000498,0
 .00009545,-0.00009943,0.00017431,0.00006617,0.00002333,-0.00007806,0.0
 0064180,0.00007696,-0.00027013,-0.00005381,0.00000968,0.00003351,-0.00
 003000,0.00012132,-0.00035172,0.00014686,-0.00130338,0.00330589,-0.000
 60487,0.00152477,-0.00076897,0.01640612,0.00106584,-0.00603287,-0.0000
 5003,-0.00000144,0.00004596,0.00001861,0.00000438,-0.00002112,0.000047
 08,-0.00001833,-0.00000612,-0.01544165,-0.08641223,0.00628821,-0.02655
 281,0.00152260,0.01743821,0.01693391,0.00283180,-0.01027835,-0.0000114
 3,0.00000124,0.00000972,0.00000325,-0.00000052,0.00000002,0.00000126,-
 0.00000006,-0.00000281,0.00000126,0.00000007,-0.00000150,0.00011618,-0
 .00007428,0.00013254,0.00003128,0.00000456,-0.00000246,-0.00002551,0.0
 0018235,0.00010791,-0.00007132,0.00009381,-0.00005201,0.00015499,-0.00
 017008,-0.00001113,-0.00003099,-0.00005564,-0.00002777,0.00000263,0.00
 000056,-0.00000144,0.00000398,-0.00000050,-0.00000171,0.00000010,-0.00
 000214,0.00000255,-0.00000047,0.00000126,0.00000504,-0.00001914,0.0000
 0612,-0.00000996,0.00000947,0.00000923,-0.00002496,0.00000073,-0.00000
 211,-0.00000694,-0.00493405,0.57136575,-0.00000481,-0.00003840,-0.0000
 0297,0.00000471,0.00005801,-0.00001335,0.00000729,-0.00002231,0.000053
 27,0.00000779,0.00003173,0.00004105,-0.00000390,-0.00002618,-0.0000111
 6,0.00000564,0.00001111,0.00000320,0.00000010,0.00000535,-0.00000932,-
 0.00000381,-0.00000221,0.00000085,-0.00000449,-0.00000512,0.00000250,-
 0.00020686,0.00023387,-0.00034600,-0.00015853,-0.00009124,0.00019115,-
 0.00127184,-0.00006141,0.00058246,0.00017575,0.00003095,-0.00013207,0.
 00006412,-0.00035488,0.00058309,-0.00046603,0.00259261,-0.00693712,0.0
 0164537,-0.00076181,0.00266684,-0.02688536,0.00000744,0.01313491,0.000
 13267,0.00001922,-0.00011913,-0.00004577,-0.00001889,0.00006907,-0.000
 10601,0.00003281,0.00001688,0.07118596,0.00433750,-0.13006353,0.007632
 40,-0.00069609,-0.00478543,0.02352203,0.00399900,-0.01298105,0.0000274
 7,-0.00000160,-0.00002209,-0.00000643,0.00000228,0.00000052,-0.0000037
 4,0.00000056,0.00000471,-0.00000384,-0.00000090,0.00000417,-0.00034941
 ,0.00014610,-0.00021790,-0.00004832,0.00000462,0.00001259,0.00001469,0
 .00004622,0.00011853,-0.00005434,0.00002798,-0.00004991,0.00001068,-0.
 00002190,0.00000595,0.00003368,-0.00001167,-0.00004117,-0.00000789,-0.
 00000135,0.00000426,-0.00000470,0.00000273,-0.00000020,-0.00000602,0.0
 0000430,-0.00000191,0.00000315,0.00000075,-0.00000338,0.00002716,-0.00
 001647,0.00000912,-0.00000100,0.00001034,-0.00003312,-0.00000262,-0.00
 003436,-0.00003381,0.04211637,0.00223114,0.54711109,-0.00000899,-0.000
 02339,0.00000054,-0.00000139,0.00002899,-0.00000807,0.00000284,0.00000
 166,0.00001166,0.00000774,0.00002525,0.00004187,-0.00000144,-0.0000226
 9,-0.00001447,0.00000647,0.00001380,-0.00000218,0.00000822,0.00000611,
 -0.00001262,-0.00000370,-0.00000355,-0.00000102,-0.00000568,-0.0000049
 6,0.00000576,-0.00004785,0.00012732,-0.00015790,-0.00011715,-0.0000648
 7,0.00013926,-0.00050061,-0.00000614,0.00012042,0.00017033,0.00002642,
 -0.00013413,0.00013375,-0.00020042,0.00033554,0.00119212,0.00084753,-0
 .00250430,-0.00003963,-0.00035876,0.00098622,-0.00742402,-0.00036755,0
 .00468225,0.00017079,-0.00000631,-0.00010280,-0.00005855,-0.00001453,0
 .00006988,-0.00011980,0.00003955,0.00001154,-0.01792350,0.00858783,-0.
 01750187,0.00066031,-0.00084742,-0.00013514,0.00082646,0.00053418,0.00
 037724,0.00004139,-0.00000482,-0.00002666,-0.00000656,0.00000299,-0.00
 000124,-0.00000358,0.00000097,0.00000627,-0.00000408,-0.00000182,0.000
 00483,-0.00032473,0.00011182,-0.00011642,-0.00001777,-0.00000160,0.000
 01058,0.00001734,-0.00000482,0.00001690,0.00000579,-0.00001651,0.00003
 129,0.00000254,-0.00001555,0.00002310,-0.00001520,0.00002129,-0.000028
 50,-0.00000926,-0.00000115,0.00000344,-0.00000354,0.00000333,0.0000006
 2,-0.00000557,0.00000176,-0.00000215,0.00000352,-0.00000079,-0.0000009
 8,0.00002705,-0.00001822,-0.00000022,-0.00000885,-0.00000195,0.0000021
 9,-0.00000565,-0.00002926,-0.00002634,-0.21224129,0.06344581,-0.106944
 49,0.23212945,0.00000230,0.00000259,0.00000227,-0.00000239,-0.00000174
 ,0.00000045,-0.00000012,0.00000349,-0.00000456,-0.00000070,-0.00000529
 ,-0.00000588,0.00000121,0.00000072,-0.00000031,0.00000174,-0.00000041,
 0.00000182,-0.00000141,-0.00000055,0.00000186,-0.00000145,0.00000026,0
 .00000011,-0.00000174,0.00000130,0.00000022,-0.00001762,-0.00001954,-0
 .00001969,0.00001790,0.00000696,-0.00002443,-0.00004734,-0.00006122,0.
 00001758,-0.00003453,-0.00000594,0.00003166,-0.00004478,-0.00000776,0.
 00005779,-0.00028273,0.00060144,0.00004697,0.00008458,-0.00011816,-0.0
 0010285,-0.00075813,0.00102824,0.00016616,-0.00004196,0.00000540,0.000
 01906,0.00001392,0.00000077,-0.00001668,0.00002628,-0.00000879,-0.0000
 0177,-0.00202160,-0.00121081,-0.00177661,0.00025904,0.00005469,-0.0002
 5751,0.00006390,0.00005140,-0.00018237,-0.00001061,0.00000224,0.000006
 62,0.00000133,-0.00000067,0.00000060,0.00000074,-0.00000029,-0.0000016
 9,0.00000095,0.00000034,-0.00000116,0.00007008,0.00000796,-0.00002185,
 -0.00001111,0.00000295,-0.00000162,0.00001139,-0.00006855,-0.00006895,
 -0.00001573,-0.00003289,-0.00000849,-0.00005800,0.00009829,0.00000767,
 0.00002424,0.00001237,0.00001840,0.00000265,-0.00000049,-0.00000141,0.
 00000093,-0.00000087,-0.00000018,0.00000131,0.00000007,0.00000022,-0.0
 0000116,0.00000074,-0.00000099,0.00000613,0.00000190,0.00000105,0.0000
 0017,-0.00000063,0.00000174,0.00000170,0.00000346,0.00000367,0.0643361
 4,-0.07122007,0.04261785,-0.07066256,0.07315352,-0.00000082,0.00000432
 ,-0.00000154,-0.00000977,-0.00001408,0.00000591,-0.00000106,0.00000761
 ,-0.00002361,0.00000198,0.00000620,0.00000856,0.00000105,0.00000032,-0
 .00000046,-0.00000096,-0.00000121,-0.00000010,0.00000127,-0.00000042,0
 .00000040,-0.00000015,-0.00000059,0.00000027,0.00000077,0.00000022,0.0
 0000085,0.00007517,-0.00006226,0.00008972,0.00001128,0.00000882,-0.000
 01396,0.00033446,0.00002411,-0.00018601,0.00001111,0.00000247,-0.00001
 780,0.00005293,0.00010960,-0.00019269,0.00059407,-0.00044242,0.0015420
 7,-0.00030987,0.00008077,-0.00026826,0.00564765,0.00003729,-0.00162341
 ,0.00002688,-0.00001222,0.00000011,-0.00000796,-0.00000086,0.00000604,
 -0.00000952,0.00000338,-0.00000218,0.01287302,-0.00648834,0.01059147,-
 0.00072480,0.00023107,0.00067425,-0.00090027,-0.00038378,0.00046272,0.
 00000838,-0.00000101,-0.00000224,-0.00000017,0.00000047,-0.00000085,-0
 .00000028,0.00000016,0.00000081,-0.00000042,-0.00000058,0.00000064,-0.
 00002164,-0.00003421,0.00009207,0.00002863,-0.00000284,0.00000163,-0.0
 0003309,-0.00006442,0.00000366,0.00008902,0.00003252,0.00008094,0.0000
 4365,-0.00006488,-0.00001534,-0.00003310,0.00001828,0.00000545,-0.0000
 0230,-0.00000027,0.00000038,0.,0.00000037,0.00000045,-0.00000069,-0.00
 000083,0.00000054,0.00000112,-0.00000162,0.00000259,-0.00001135,0.0000
 0010,0.00000119,-0.00000334,-0.00000528,0.00001646,-0.00000196,-0.0000
 0314,-0.00000240,-0.10944198,0.04296801,-0.11997270,0.11843210,-0.0471
 8639,0.12717503,-0.00000194,0.00001052,0.00000378,0.00000903,-0.000013
 07,-0.00000139,0.00000031,-0.00000433,0.00001912,-0.00000012,-0.000004
 68,-0.00000828,-0.00000117,0.00001173,0.00000167,-0.00000358,0.0000036
 9,-0.00000507,0.00000633,-0.00000567,-0.00000001,0.00000237,0.00000083
 ,-0.00000036,0.00000404,0.00000274,-0.00000250,-0.00001365,-0.00002279
 ,0.00001097,0.00004321,0.00001674,-0.00004884,0.00006933,0.00003525,-0
 .00012928,-0.00005352,-0.00001053,0.00004919,-0.00013084,-0.00005435,0
 .00016010,-0.00041519,-0.00025438,0.00116103,-0.00038396,0.00050960,-0
 .00067992,0.00326430,0.00000913,-0.00058527,-0.00005795,-0.00000148,0.
 00004505,0.00001964,0.00001260,-0.00003309,0.00003324,-0.00000812,-0.0
 0000716,-0.00591579,-0.02953176,0.00857090,-0.00412263,0.00041820,0.00
 306404,0.00112677,0.00071153,-0.00076197,-0.00001413,0.00000045,0.0000
 0812,0.00000159,-0.00000098,0.00000046,0.00000130,-0.00000058,-0.00000
 166,0.00000163,0.00000083,-0.00000151,0.00009652,0.00004544,-0.0000798
 5,-0.00003127,0.00000112,-0.00000612,-0.00000657,-0.00006964,-0.000118
 05,-0.00005753,-0.00003389,-0.00006069,-0.00013844,0.00017981,-0.00004
 046,0.00005674,0.00000635,0.00002583,0.00000400,-0.00000080,-0.0000031
 3,0.00000087,-0.00000087,-0.00000038,0.00000232,0.00000002,-0.00000036
 ,-0.00000233,0.00000172,-0.00000355,0.00001810,-0.00000008,-0.00000884
 ,0.00000151,0.00000651,-0.00001601,0.00000130,0.00000591,0.00000222,-0
 .05276530,-0.03566966,0.01027901,0.00509805,0.02523198,-0.00625261,0.0
 5572542,-0.00000405,0.00000147,-0.00000088,0.00000528,-0.00000695,-0.0
 0000309,-0.00000047,-0.00000454,0.00001863,0.00000003,0.00000346,0.000
 00237,-0.00000138,0.00000721,-0.00000234,-0.00000519,0.00000618,-0.000
 00461,0.00000758,-0.00000373,-0.00000191,0.00000429,0.00000007,-0.0000
 0057,0.00000484,0.00000044,-0.00000143,-0.00001739,-0.00000262,-0.0000
 3859,0.00000146,0.00000134,0.00000231,-0.00009785,0.00008401,-0.000147
 66,0.00001610,-0.00000344,-0.00000087,-0.00005183,-0.00014772,0.000291
 97,0.00022751,0.00000201,0.00008248,-0.00004364,0.00010156,-0.00026570
 ,-0.00067777,0.00090216,-0.00054190,0.00002015,-0.00001283,0.00001127,
 -0.00000678,0.00001200,-0.00000974,-0.00002159,0.00001239,-0.00000582,
 0.00004224,-0.00165094,0.00108668,0.00023391,0.00165185,0.00029997,-0.
 00039629,0.00088430,0.00035057,0.00000601,-0.00000308,-0.00000316,-0.0
 0000154,0.00000044,-0.00000066,-0.00000014,-0.00000034,0.00000153,0.,0
 .00000025,0.00000085,-0.00003638,0.00006815,-0.00011854,-0.00003409,-0
 .00000207,0.00000381,0.00009285,-0.00001448,-0.00004200,-0.00007005,-0
 .00009548,-0.00004899,-0.00005660,0.00014031,0.00004750,0.00003037,0.0
 0001077,0.00000419,-0.00000164,-0.00000235,0.00000077,-0.00000124,0.00
 000074,0.00000006,0.00000020,0.00000083,-0.00000153,0.00000036,0.00000
 094,-0.00000488,0.00002102,-0.00000415,-0.00000306,-0.00000290,0.00000
 603,-0.00001241,-0.00000210,-0.00000030,-0.00000214,-0.03763859,-0.283
 61199,0.06834927,-0.00093467,-0.00847607,0.00192826,0.04136607,0.30680
 095,0.00000650,0.00000696,0.00000168,0.00000200,-0.00000438,-0.0000028
 4,-0.00000072,0.00000375,-0.00001219,-0.00000457,-0.00001724,-0.000023
 43,0.00000108,0.00000406,0.00000457,0.00000225,-0.00000739,0.00000336,
 -0.00000737,0.00000166,0.00000581,-0.00000051,0.00000155,-0.00000009,-
 0.00000257,0.00000132,-0.00000045,-0.00000829,-0.00000852,0.00001985,0
 .00003696,0.00001568,-0.00004655,0.00007244,-0.00001829,0.00009747,-0.
 00007017,-0.00001012,0.00006466,-0.00005865,0.00004511,-0.00006156,-0.
 00023722,0.00011370,-0.00030965,0.00033722,-0.00029222,0.00007183,-0.0
 0104588,-0.00112464,0.00091992,-0.00007778,0.00001229,0.00003565,0.000
 02580,-0.00000012,-0.00002914,0.00005135,-0.00001908,-0.00000243,0.002
 24466,0.02117306,-0.00701669,0.00362556,-0.00058323,-0.00111586,-0.000
 83952,0.00011613,0.00033574,-0.00001836,0.00000417,0.00001230,0.000002
 81,-0.00000125,0.00000093,0.00000170,-0.00000029,-0.00000334,0.0000015
 2,0.00000035,-0.00000233,0.00014941,-0.00003766,0.00001071,-0.00000610
 ,0.00000158,-0.00000284,0.00003906,0.00001827,-0.00001619,-0.00005859,
 -0.00007472,-0.00003705,-0.00004417,0.00006685,0.00007128,0.00001129,-
 0.00001294,0.00000967,0.00000459,0.00000056,-0.00000029,0.00000287,-0.
 00000156,-0.00000034,0.00000237,-0.00000114,0.00000088,-0.00000143,0.0
 0000120,0.00000002,-0.00001048,0.00001173,0.00000079,0.00000001,-0.000
 00142,0.00000547,0.00000373,0.00001491,0.00001593,0.01146730,0.0668622
 8,-0.06845273,0.00340092,0.01567879,-0.00529026,-0.01527361,-0.0764942
 1,0.07172890,-0.00000025,0.00000498,0.00000826,0.00000535,0.00000164,-
 0.00000235,-0.00000177,-0.00000695,0.00002909,-0.00000433,-0.00001193,
 -0.00001099,0.00000240,0.00000236,0.00000133,-0.00000192,0.00000134,-0
 .00000136,0.00000324,-0.00000160,-0.00000119,-0.00000028,0.00000052,-0
 .00000047,0.00000123,0.00000202,-0.00000169,0.00000301,-0.00000844,0.0
 0002396,0.00002596,0.00000958,-0.00004435,0.00008080,0.00001807,-0.000
 07441,-0.00004432,-0.00000409,0.00004027,-0.00008739,-0.00000112,0.000
 02401,-0.00049794,-0.00041317,0.00106421,-0.00040843,0.00010342,-0.000
 72471,0.00334696,-0.00048691,-0.00064039,-0.00005071,0.00000439,0.0000
 3345,0.00001646,0.00000207,-0.00002476,0.00003240,-0.00000981,-0.00000
 413,0.00154585,0.01848709,0.02558722,0.00117193,-0.00013523,-0.0010368
 0,-0.00449498,-0.00061373,0.00275031,-0.00001260,0.00000231,0.00000811
 ,0.00000167,-0.00000076,0.00000047,0.00000114,-0.00000050,-0.00000187,
 0.00000125,0.00000052,-0.00000124,0.00007946,-0.00000286,-0.00003526,-
 0.00001164,0.00000468,-0.00000423,-0.00000736,0.00006999,0.00001081,-0
 .00006902,0.00004905,-0.00009650,-0.00001282,0.00001610,-0.00001012,0.
 00002755,-0.00002728,0.00000133,0.00000377,0.00000106,-0.00000130,0.00
 000123,-0.00000094,-0.00000039,0.00000128,0.,0.00000022,-0.00000173,0.
 00000115,-0.00000093,0.00001206,0.00000182,-0.00000686,0.00000907,0.00
 000703,-0.00002275,0.00000294,0.00000416,0.00000110,-0.04929583,-0.014
 63778,-0.02030583,-0.00160577,-0.01614494,-0.02046643,-0.00147202,-0.0
 0197609,-0.00372740,0.05170412,-0.00000161,-0.00000435,-0.00000185,-0.
 00000634,0.00000322,0.00000658,-0.00000026,0.00001318,-0.00003063,-0.0
 0000080,0.00000165,0.00000882,0.00000226,-0.00000809,-0.00000137,0.000
 00392,-0.00000126,0.00000389,-0.00000242,0.00000245,-0.00000086,-0.000
 00271,-0.00000100,0.00000031,-0.00000337,-0.00000166,0.00000244,0.0000
 1891,0.00000156,0.00000457,-0.00002808,-0.00000789,0.00003684,0.000004
 83,-0.00001707,0.00006096,0.00003774,-0.00000022,-0.00004793,0.0000932
 2,0.00009681,-0.00012848,0.00016742,0.00010517,-0.00012866,-0.00010844
 ,-0.00017856,0.00027803,0.00017237,-0.00006013,-0.00002842,0.00004650,
 -0.00000025,-0.00003640,-0.00001484,-0.00000666,0.00003022,-0.00002430
 ,0.00000684,0.00000648,0.00116718,0.00204073,0.00314549,0.00073029,0.0
 0068897,0.00031839,-0.00093537,0.00129826,0.00043602,0.00001008,-0.000
 00184,-0.00000768,-0.00000111,0.00000049,-0.00000029,-0.00000102,0.000
 00054,0.00000180,-0.00000121,-0.00000029,0.00000098,-0.00007662,-0.000
 02237,0.00007763,0.00002718,-0.00000465,-0.00000222,-0.00006510,-0.000
 12638,-0.00003743,0.00015166,0.00006959,0.00011123,0.00000703,-0.00006
 340,-0.00005125,-0.00003016,0.00003582,0.00000870,-0.00000224,0.000001
 53,0.00000018,-0.00000204,0.00000061,0.00000092,-0.00000109,0.00000028
 ,-0.00000019,0.00000081,-0.00000258,0.00000260,-0.00001028,-0.00000486
 ,0.00000477,-0.00000216,-0.00000915,0.00002341,-0.00000053,-0.00000419
 ,-0.00000170,-0.01389464,-0.13586331,-0.12263694,-0.00021231,0.0061996
 2,0.00930731,-0.00290111,-0.01665677,-0.02544556,0.01568876,0.14247962
 ,0.00000394,0.00000421,-0.00000947,-0.00000572,-0.00001446,0.00000674,
 -0.00000140,0.00000758,-0.00002484,-0.00000366,-0.00002039,-0.00002833
 ,-0.00000226,0.00001342,0.00000669,-0.00000139,-0.00000509,0.00000010,
 -0.00000803,-0.00000135,0.00000710,0.00000449,0.00000210,-0.00000036,0
 .00000098,-0.00000036,-0.00000137,-0.00000217,-0.00005311,0.00001693,0
 .00003633,0.00002493,-0.00003386,0.00009253,-0.00011117,0.00014477,-0.
 00006893,-0.00001649,0.00005165,-0.00001092,0.00010601,-0.00018707,-0.
 00022615,0.00026358,-0.00032940,0.00033981,-0.00002198,0.00039195,-0.0
 0050144,0.00060430,0.00181987,-0.00006075,0.00000284,0.00001924,0.0000
 2124,0.00001021,-0.00001157,0.00004175,-0.00001388,0.00000143,-0.00254
 754,-0.01154185,-0.01822667,-0.00037649,0.00042430,0.00045883,0.003467
 63,0.00109662,-0.00046642,-0.00001508,0.00000003,0.00000671,0.00000228
 ,-0.00000140,0.00000064,0.00000107,0.00000036,-0.00000159,0.00000136,0
 .00000096,-0.00000214,0.00013693,-0.00005201,0.00006807,0.00001174,-0.
 00000195,-0.00000444,-0.00001815,-0.00003005,-0.00001367,0.00000503,-0
 .00001517,0.00003506,0.00000562,0.00000677,0.00000119,0.00000063,0.000
 00407,0.00001732,0.00000405,0.00000024,-0.00000147,0.00000054,-0.00000
 074,-0.00000024,0.00000297,-0.00000114,0.00000053,-0.00000188,-0.00000
 063,0.00000038,-0.00001755,0.00000690,0.00000703,-0.00000059,-0.000004
 01,0.00001894,0.00000213,0.00002369,0.00002575,-0.01771304,-0.12168216
 ,-0.22038618,-0.00099293,-0.00899718,-0.01315038,0.00072846,0.00527419
 ,0.00900881,0.01766455,0.13470926,0.24076377\\0.00000052,0.00000169,-0
 .00000067,0.00000098,0.00000213,0.00000245,-0.00000016,-0.00000012,-0.
 00000298,-0.00000122,-0.00000414,-0.00000392,0.00000049,0.00000206,0.0
 0000635,-0.00000070,-0.00000358,-0.00000062,0.00000009,-0.00000027,0.0
 0000048,-0.00000020,-0.00000022,-0.00000041,0.00000032,0.00000055,0.00
 000039,-0.00000090,0.00000053,0.00000038,0.00000163,0.00000035,-0.0000
 0232,-0.00000180,0.00000260,-0.00000463,0.00000380,-0.00000068,-0.0000
 0242,-0.00000313,0.00000039,-0.00000021,0.00000925,-0.00000078,0.00000
 295,-0.00000090,-0.00000068,0.00000164,-0.00000830,0.00000211,-0.00000
 578,-0.00000582,0.00000077,0.00000259,0.00000049,-0.00000059,0.0000020
 5,0.00000457,-0.00000035,-0.00000198,0.00000729,-0.00000341,0.00000398
 ,-0.00000079,0.00000028,-0.00000122,-0.00000076,0.00000055,-0.00000125
 ,-0.00000275,0.00000110,0.00000391,0.00000068,0.00000009,0.00000051,0.
 00000091,0.00000015,0.00000006,0.00000033,-0.00000017,-0.00000014,-0.0
 0000147,-0.00000110,0.00000107,-0.00000010,0.00000074,0.00000026,0.000
 00124,0.00000161,0.00000259,0.,-0.00000162,-0.00000103,0.00000018,-0.0
 0000126,-0.00000073,0.00000059,0.00000006,-0.00000025,-0.00000143,-0.0
 0000066,0.00000070,0.00000006,0.00000103,0.00000031,-0.00000026,0.0000
 0055,0.00000093,-0.00000069,-0.00000024,-0.00000043,0.00000016,-0.0000
 0056,0.00000017,-0.00000021,0.00000126,0.00000011,-0.00000033,0.000000
 55,-0.00000003,-0.00000218,0.00000023,-0.00000057,0.00000028,-0.000000
 40,-0.00000095,0.00000036,-0.00000022,-0.00000060,-0.00000013,-0.00000
 033,-0.00000074\\\@


 MOM AND DAD WENT TO ALPHA CENTAURI AND ALL
 I GOT WAS THIS DUMB T-SHIRT.
 Job cpu time:       2 days 23 hours  4 minutes  9.3 seconds.
 Elapsed time:       0 days  9 hours  6 minutes 38.2 seconds.
 File lengths (MBytes):  RWF=   7178 Int=      0 D2E=      0 Chk=     70 Scr=      1
 Normal termination of Gaussian 16 at Tue Jan 27 15:34:26 2026.
