 Entering Gaussian System, Link 0=g16
 Input=Nifedipine_DFT_B3LYP_6311pp2d3p_Opt_Freq_Raman_Pol_Pos2.gjf
 Output=Nifedipine_DFT_B3LYP_6311pp2d3p_Opt_Freq_Raman_Pol_Pos2.log
 Initial command:
 /opt/g16/l1.exe "/home/yarger/scratches/g16/Gau-1647198.inp" -scrdir="/home/yarger/scratches/g16/"
 Entering Link 1 = /opt/g16/l1.exe PID=   1647200.
  
 Copyright (c) 1988-2019, Gaussian, Inc.  All Rights Reserved.
  
 This is part of the Gaussian(R) 16 program.  It is based on
 the Gaussian(R) 09 system (copyright 2009, Gaussian, Inc.),
 the Gaussian(R) 03 system (copyright 2003, Gaussian, Inc.),
 the Gaussian(R) 98 system (copyright 1998, Gaussian, Inc.),
 the Gaussian(R) 94 system (copyright 1995, Gaussian, Inc.),
 the Gaussian 92(TM) system (copyright 1992, Gaussian, Inc.),
 the Gaussian 90(TM) system (copyright 1990, Gaussian, Inc.),
 the Gaussian 88(TM) system (copyright 1988, Gaussian, Inc.),
 the Gaussian 86(TM) system (copyright 1986, Carnegie Mellon
 University), and the Gaussian 82(TM) system (copyright 1983,
 Carnegie Mellon University). Gaussian is a federally registered
 trademark of Gaussian, Inc.
  
 This software contains proprietary and confidential information,
 including trade secrets, belonging to Gaussian, Inc.
  
 This software is provided under written license and may be
 used, copied, transmitted, or stored only in accord with that
 written license.
  
 The following legend is applicable only to US Government
 contracts under FAR:
  
                    RESTRICTED RIGHTS LEGEND
  
 Use, reproduction and disclosure by the US Government is
 subject to restrictions as set forth in subparagraphs (a)
 and (c) of the Commercial Computer Software - Restricted
 Rights clause in FAR 52.227-19.
  
 Gaussian, Inc.
 340 Quinnipiac St., Bldg. 40, Wallingford CT 06492
  
  
 ---------------------------------------------------------------
 Warning -- This program may not be used in any manner that
 competes with the business of Gaussian, Inc. or will provide
 assistance to any competitor of Gaussian, Inc.  The licensee
 of this program is prohibited from giving any competitor of
 Gaussian, Inc. access to this program.  By using this program,
 the user acknowledges that Gaussian, Inc. is engaged in the
 business of creating and licensing software in the field of
 computational chemistry and represents and warrants to the
 licensee that it is not a competitor of Gaussian, Inc. and that
 it will not use this program in any manner prohibited above.
 ---------------------------------------------------------------
  

 Cite this work as:
 Gaussian 16, Revision C.01,
 M. J. Frisch, G. W. Trucks, H. B. Schlegel, G. E. Scuseria, 
 M. A. Robb, J. R. Cheeseman, G. Scalmani, V. Barone, 
 G. A. Petersson, H. Nakatsuji, X. Li, M. Caricato, A. V. Marenich, 
 J. Bloino, B. G. Janesko, R. Gomperts, B. Mennucci, H. P. Hratchian, 
 J. V. Ortiz, A. F. Izmaylov, J. L. Sonnenberg, D. Williams-Young, 
 F. Ding, F. Lipparini, F. Egidi, J. Goings, B. Peng, A. Petrone, 
 T. Henderson, D. Ranasinghe, V. G. Zakrzewski, J. Gao, N. Rega, 
 G. Zheng, W. Liang, M. Hada, M. Ehara, K. Toyota, R. Fukuda, 
 J. Hasegawa, M. Ishida, T. Nakajima, Y. Honda, O. Kitao, H. Nakai, 
 T. Vreven, K. Throssell, J. A. Montgomery, Jr., J. E. Peralta, 
 F. Ogliaro, M. J. Bearpark, J. J. Heyd, E. N. Brothers, K. N. Kudin, 
 V. N. Staroverov, T. A. Keith, R. Kobayashi, J. Normand, 
 K. Raghavachari, A. P. Rendell, J. C. Burant, S. S. Iyengar, 
 J. Tomasi, M. Cossi, J. M. Millam, M. Klene, C. Adamo, R. Cammi, 
 J. W. Ochterski, R. L. Martin, K. Morokuma, O. Farkas, 
 J. B. Foresman, and D. J. Fox, Gaussian, Inc., Wallingford CT, 2019.
 
 ******************************************
 Gaussian 16:  ES64L-G16RevC.01  3-Jul-2019
                10-Dec-2025 
 ******************************************
 %nprocshared=12
 Will use up to   12 processors via shared memory.
 %mem=12GB
 %chk=Nifedipine_DFT_B3LYP_6311pp2d3p_Opt_Freq_Raman_Pol_Pos2.chk
 ---------------------------------------------------------------
 #p opt freq=raman b3lyp/6-311++g(2d,3p) geom=connectivity polar
 ---------------------------------------------------------------
 1/18=20,19=15,26=3,38=1,57=2/1,3;
 2/9=110,12=2,17=6,18=5,40=1/2;
 3/5=4,6=6,7=1512,11=2,25=1,30=1,71=1,74=-5/1,2,3;
 4//1;
 5/5=2,38=5,98=1/2;
 6/7=2,8=2,9=2,10=2,28=1/1;
 7//1,2,3,16;
 1/18=20,19=15,26=3/3(2);
 2/9=110/2;
 99//99;
 2/9=110/2;
 3/5=4,6=6,7=1512,11=2,25=1,30=1,71=1,74=-5/1,2,3;
 4/5=5,16=3,69=1/1;
 5/5=2,38=5,98=1/2;
 7//1,2,3,16;
 1/18=20,19=15,26=3/3(-5);
 2/9=110/2;
 6/7=2,8=2,9=2,10=2,19=2,28=1/1;
 99/9=1/99;
 Leave Link    1 at Wed Dec 10 06:26:24 2025, MaxMem=  1610612736 cpu:               0.3 elap:               0.0
 (Enter /opt/g16/l101.exe)
 ----------
 Nifedipine
 ----------
 Symbolic Z-matrix:
 Charge =  0 Multiplicity = 1
 C                    -0.25541  -0.72953  -2.00518 
 C                    -0.11936  -1.14547  -0.67386 
 C                     0.60632  -2.30598  -0.37301 
 C                     1.19596  -3.05056  -1.40347 
 C                     1.05991  -2.63462  -2.73479 
 C                     0.33423  -1.47411  -3.03564 
 H                    -0.80949   0.15655  -2.23488 
 H                     1.75004  -3.93664  -1.17377 
 H                     1.51011  -3.20312  -3.52157 
 H                     0.23035  -1.15653  -4.05213 
 C                    -0.76731  -0.32725   0.45852 
 C                    -0.75932   1.1609    0.08795 
 C                    -2.21661  -0.7861    0.66091 
 C                    -1.7995    1.70161  -0.59225 
 C                    -3.22254  -0.19963  -0.03276 
 C                    -2.5303   -1.91854   1.65629 
 O                    -1.59842  -2.46511   2.30161 
 O                    -3.88054  -2.349     1.84725 
 C                     0.43607   2.04465   0.49 
 O                     1.40338   1.54541   1.12139 
 O                     0.44686   3.43257   0.14585 
 C                    -3.89373  -3.73486   2.19957 
 H                    -4.90405  -4.05694   2.34245 
 H                    -3.4447   -4.30672   1.41455 
 H                    -3.3423   -3.87787   3.10531 
 C                     1.79663   3.86768  -0.03771 
 H                     1.8047    4.9062   -0.29523 
 H                     2.34517   3.72081   0.86917 
 H                     2.24999   3.3016   -0.82443 
 N                    -2.96151   0.88631  -0.99845 
 H                    -3.76755   1.47649  -1.04306 
 C                    -4.66927  -0.67863   0.18889 
 H                    -4.66497  -1.71477   0.45591 
 H                    -5.11681  -0.10919   0.97651 
 H                    -5.23124  -0.54475  -0.71176 
 C                    -1.76722   3.19862  -0.95211 
 H                    -2.2172    3.7648   -0.16353 
 H                    -0.75257   3.51235  -1.08233 
 H                    -2.30947   3.35886  -1.86052 
 N                     0.74904  -2.74228   1.02348 
 O                     1.3899   -3.76715   1.28917 
 O                     0.22832  -2.08473   1.9335 
 H                    -0.21577  -0.47371   1.36365 
 
 ITRead=  0  0  0  0  0  0  0  0  0  0  0  0  0  0  0  0  0  0  0  0
 ITRead=  0  0  0  0  0  0  0  0  0  0  0  0  0  0  0  0  0  0  0  0
 ITRead=  0  0  0
 MicOpt= -1 -1 -1 -1 -1 -1 -1 -1 -1 -1 -1 -1 -1 -1 -1 -1 -1 -1 -1 -1
 MicOpt= -1 -1 -1 -1 -1 -1 -1 -1 -1 -1 -1 -1 -1 -1 -1 -1 -1 -1 -1 -1
 MicOpt= -1 -1 -1
 NAtoms=     43 NQM=       43 NQMF=       0 NMMI=      0 NMMIF=      0
                NMic=       0 NMicF=      0.
                    Isotopes and Nuclear Properties:
 (Nuclear quadrupole moments (NQMom) in fm**2, nuclear magnetic moments (NMagM)
  in nuclear magnetons)

  Atom         1           2           3           4           5           6           7           8           9          10
 IAtWgt=          12          12          12          12          12          12           1           1           1           1
 AtmWgt=  12.0000000  12.0000000  12.0000000  12.0000000  12.0000000  12.0000000   1.0078250   1.0078250   1.0078250   1.0078250
 NucSpn=           0           0           0           0           0           0           1           1           1           1
 AtZEff=  -0.0000000  -0.0000000  -0.0000000  -0.0000000  -0.0000000  -0.0000000  -0.0000000  -0.0000000  -0.0000000  -0.0000000
 NQMom=    0.0000000   0.0000000   0.0000000   0.0000000   0.0000000   0.0000000   0.0000000   0.0000000   0.0000000   0.0000000
 NMagM=    0.0000000   0.0000000   0.0000000   0.0000000   0.0000000   0.0000000   2.7928460   2.7928460   2.7928460   2.7928460
 AtZNuc=   6.0000000   6.0000000   6.0000000   6.0000000   6.0000000   6.0000000   1.0000000   1.0000000   1.0000000   1.0000000

  Atom        11          12          13          14          15          16          17          18          19          20
 IAtWgt=          12          12          12          12          12          12          16          16          12          16
 AtmWgt=  12.0000000  12.0000000  12.0000000  12.0000000  12.0000000  12.0000000  15.9949146  15.9949146  12.0000000  15.9949146
 NucSpn=           0           0           0           0           0           0           0           0           0           0
 AtZEff=  -0.0000000  -0.0000000  -0.0000000  -0.0000000  -0.0000000  -0.0000000  -0.0000000  -0.0000000  -0.0000000  -0.0000000
 NQMom=    0.0000000   0.0000000   0.0000000   0.0000000   0.0000000   0.0000000   0.0000000   0.0000000   0.0000000   0.0000000
 NMagM=    0.0000000   0.0000000   0.0000000   0.0000000   0.0000000   0.0000000   0.0000000   0.0000000   0.0000000   0.0000000
 AtZNuc=   6.0000000   6.0000000   6.0000000   6.0000000   6.0000000   6.0000000   8.0000000   8.0000000   6.0000000   8.0000000

  Atom        21          22          23          24          25          26          27          28          29          30
 IAtWgt=          16          12           1           1           1          12           1           1           1          14
 AtmWgt=  15.9949146  12.0000000   1.0078250   1.0078250   1.0078250  12.0000000   1.0078250   1.0078250   1.0078250  14.0030740
 NucSpn=           0           0           1           1           1           0           1           1           1           2
 AtZEff=  -0.0000000  -0.0000000  -0.0000000  -0.0000000  -0.0000000  -0.0000000  -0.0000000  -0.0000000  -0.0000000  -0.0000000
 NQMom=    0.0000000   0.0000000   0.0000000   0.0000000   0.0000000   0.0000000   0.0000000   0.0000000   0.0000000   2.0440000
 NMagM=    0.0000000   0.0000000   2.7928460   2.7928460   2.7928460   0.0000000   2.7928460   2.7928460   2.7928460   0.4037610
 AtZNuc=   8.0000000   6.0000000   1.0000000   1.0000000   1.0000000   6.0000000   1.0000000   1.0000000   1.0000000   7.0000000

  Atom        31          32          33          34          35          36          37          38          39          40
 IAtWgt=           1          12           1           1           1          12           1           1           1          14
 AtmWgt=   1.0078250  12.0000000   1.0078250   1.0078250   1.0078250  12.0000000   1.0078250   1.0078250   1.0078250  14.0030740
 NucSpn=           1           0           1           1           1           0           1           1           1           2
 AtZEff=  -0.0000000  -0.0000000  -0.0000000  -0.0000000  -0.0000000  -0.0000000  -0.0000000  -0.0000000  -0.0000000  -0.0000000
 NQMom=    0.0000000   0.0000000   0.0000000   0.0000000   0.0000000   0.0000000   0.0000000   0.0000000   0.0000000   2.0440000
 NMagM=    2.7928460   0.0000000   2.7928460   2.7928460   2.7928460   0.0000000   2.7928460   2.7928460   2.7928460   0.4037610
 AtZNuc=   1.0000000   6.0000000   1.0000000   1.0000000   1.0000000   6.0000000   1.0000000   1.0000000   1.0000000   7.0000000

  Atom        41          42          43
 IAtWgt=          16          16           1
 AtmWgt=  15.9949146  15.9949146   1.0078250
 NucSpn=           0           0           1
 AtZEff=  -0.0000000  -0.0000000  -0.0000000
 NQMom=    0.0000000   0.0000000   0.0000000
 NMagM=    0.0000000   0.0000000   2.7928460
 AtZNuc=   8.0000000   8.0000000   1.0000000
 Leave Link  101 at Wed Dec 10 06:26:25 2025, MaxMem=  1610612736 cpu:               6.3 elap:               0.5
 (Enter /opt/g16/l103.exe)

 GradGradGradGradGradGradGradGradGradGradGradGradGradGradGradGradGradGrad
 Berny optimization.
 Initialization pass.
                           ----------------------------
                           !    Initial Parameters    !
                           ! (Angstroms and Degrees)  !
 --------------------------                            --------------------------
 ! Name  Definition              Value          Derivative Info.                !
 --------------------------------------------------------------------------------
 ! R1    R(1,2)                  1.4014         estimate D2E/DX2                !
 ! R2    R(1,6)                  1.4014         estimate D2E/DX2                !
 ! R3    R(1,7)                  1.07           estimate D2E/DX2                !
 ! R4    R(2,3)                  1.4014         estimate D2E/DX2                !
 ! R5    R(2,11)                 1.54           estimate D2E/DX2                !
 ! R6    R(3,4)                  1.4014         estimate D2E/DX2                !
 ! R7    R(3,40)                 1.47           estimate D2E/DX2                !
 ! R8    R(4,5)                  1.4014         estimate D2E/DX2                !
 ! R9    R(4,8)                  1.07           estimate D2E/DX2                !
 ! R10   R(5,6)                  1.4014         estimate D2E/DX2                !
 ! R11   R(5,9)                  1.07           estimate D2E/DX2                !
 ! R12   R(6,10)                 1.07           estimate D2E/DX2                !
 ! R13   R(11,12)                1.5336         estimate D2E/DX2                !
 ! R14   R(11,13)                1.5336         estimate D2E/DX2                !
 ! R15   R(11,43)                1.07           estimate D2E/DX2                !
 ! R16   R(12,14)                1.3554         estimate D2E/DX2                !
 ! R17   R(12,19)                1.54           estimate D2E/DX2                !
 ! R18   R(13,15)                1.3554         estimate D2E/DX2                !
 ! R19   R(13,16)                1.54           estimate D2E/DX2                !
 ! R20   R(14,30)                1.4765         estimate D2E/DX2                !
 ! R21   R(14,36)                1.54           estimate D2E/DX2                !
 ! R22   R(15,30)                1.4765         estimate D2E/DX2                !
 ! R23   R(15,32)                1.54           estimate D2E/DX2                !
 ! R24   R(16,17)                1.2584         estimate D2E/DX2                !
 ! R25   R(16,18)                1.43           estimate D2E/DX2                !
 ! R26   R(18,22)                1.43           estimate D2E/DX2                !
 ! R27   R(19,20)                1.2584         estimate D2E/DX2                !
 ! R28   R(19,21)                1.43           estimate D2E/DX2                !
 ! R29   R(21,26)                1.43           estimate D2E/DX2                !
 ! R30   R(22,23)                1.07           estimate D2E/DX2                !
 ! R31   R(22,24)                1.07           estimate D2E/DX2                !
 ! R32   R(22,25)                1.07           estimate D2E/DX2                !
 ! R33   R(26,27)                1.07           estimate D2E/DX2                !
 ! R34   R(26,28)                1.07           estimate D2E/DX2                !
 ! R35   R(26,29)                1.07           estimate D2E/DX2                !
 ! R36   R(30,31)                1.0            estimate D2E/DX2                !
 ! R37   R(32,33)                1.07           estimate D2E/DX2                !
 ! R38   R(32,34)                1.07           estimate D2E/DX2                !
 ! R39   R(32,35)                1.07           estimate D2E/DX2                !
 ! R40   R(36,37)                1.07           estimate D2E/DX2                !
 ! R41   R(36,38)                1.07           estimate D2E/DX2                !
 ! R42   R(36,39)                1.07           estimate D2E/DX2                !
 ! R43   R(40,41)                1.2376         estimate D2E/DX2                !
 ! R44   R(40,42)                1.2376         estimate D2E/DX2                !
 ! A1    A(2,1,6)              120.0            estimate D2E/DX2                !
 ! A2    A(2,1,7)              120.0            estimate D2E/DX2                !
 ! A3    A(6,1,7)              120.0            estimate D2E/DX2                !
 ! A4    A(1,2,3)              120.0            estimate D2E/DX2                !
 ! A5    A(1,2,11)             120.0            estimate D2E/DX2                !
 ! A6    A(3,2,11)             120.0            estimate D2E/DX2                !
 ! A7    A(2,3,4)              120.0            estimate D2E/DX2                !
 ! A8    A(2,3,40)             120.0            estimate D2E/DX2                !
 ! A9    A(4,3,40)             120.0            estimate D2E/DX2                !
 ! A10   A(3,4,5)              120.0            estimate D2E/DX2                !
 ! A11   A(3,4,8)              120.0            estimate D2E/DX2                !
 ! A12   A(5,4,8)              120.0            estimate D2E/DX2                !
 ! A13   A(4,5,6)              120.0            estimate D2E/DX2                !
 ! A14   A(4,5,9)              120.0            estimate D2E/DX2                !
 ! A15   A(6,5,9)              120.0            estimate D2E/DX2                !
 ! A16   A(1,6,5)              120.0            estimate D2E/DX2                !
 ! A17   A(1,6,10)             120.0            estimate D2E/DX2                !
 ! A18   A(5,6,10)             120.0            estimate D2E/DX2                !
 ! A19   A(2,11,12)            109.6145         estimate D2E/DX2                !
 ! A20   A(2,11,13)            109.6145         estimate D2E/DX2                !
 ! A21   A(2,11,43)            109.4153         estimate D2E/DX2                !
 ! A22   A(12,11,13)           109.0951         estimate D2E/DX2                !
 ! A23   A(12,11,43)           109.5439         estimate D2E/DX2                !
 ! A24   A(13,11,43)           109.5439         estimate D2E/DX2                !
 ! A25   A(11,12,14)           120.2898         estimate D2E/DX2                !
 ! A26   A(11,12,19)           119.8551         estimate D2E/DX2                !
 ! A27   A(14,12,19)           119.8551         estimate D2E/DX2                !
 ! A28   A(11,13,15)           120.2898         estimate D2E/DX2                !
 ! A29   A(11,13,16)           119.8551         estimate D2E/DX2                !
 ! A30   A(15,13,16)           119.8551         estimate D2E/DX2                !
 ! A31   A(12,14,30)           121.4518         estimate D2E/DX2                !
 ! A32   A(12,14,36)           119.2738         estimate D2E/DX2                !
 ! A33   A(30,14,36)           119.2742         estimate D2E/DX2                !
 ! A34   A(13,15,30)           121.4518         estimate D2E/DX2                !
 ! A35   A(13,15,32)           119.2738         estimate D2E/DX2                !
 ! A36   A(30,15,32)           119.2742         estimate D2E/DX2                !
 ! A37   A(13,16,17)           120.0            estimate D2E/DX2                !
 ! A38   A(13,16,18)           120.0            estimate D2E/DX2                !
 ! A39   A(17,16,18)           120.0            estimate D2E/DX2                !
 ! A40   A(16,18,22)           109.4712         estimate D2E/DX2                !
 ! A41   A(12,19,20)           120.0            estimate D2E/DX2                !
 ! A42   A(12,19,21)           120.0            estimate D2E/DX2                !
 ! A43   A(20,19,21)           120.0            estimate D2E/DX2                !
 ! A44   A(19,21,26)           109.4712         estimate D2E/DX2                !
 ! A45   A(18,22,23)           109.4712         estimate D2E/DX2                !
 ! A46   A(18,22,24)           109.4712         estimate D2E/DX2                !
 ! A47   A(18,22,25)           109.4712         estimate D2E/DX2                !
 ! A48   A(23,22,24)           109.4712         estimate D2E/DX2                !
 ! A49   A(23,22,25)           109.4712         estimate D2E/DX2                !
 ! A50   A(24,22,25)           109.4712         estimate D2E/DX2                !
 ! A51   A(21,26,27)           109.4712         estimate D2E/DX2                !
 ! A52   A(21,26,28)           109.4712         estimate D2E/DX2                !
 ! A53   A(21,26,29)           109.4712         estimate D2E/DX2                !
 ! A54   A(27,26,28)           109.4712         estimate D2E/DX2                !
 ! A55   A(27,26,29)           109.4712         estimate D2E/DX2                !
 ! A56   A(28,26,29)           109.4712         estimate D2E/DX2                !
 ! A57   A(14,30,15)           111.428          estimate D2E/DX2                !
 ! A58   A(14,30,31)           108.7079         estimate D2E/DX2                !
 ! A59   A(15,30,31)           108.7079         estimate D2E/DX2                !
 ! A60   A(15,32,33)           109.4712         estimate D2E/DX2                !
 ! A61   A(15,32,34)           109.4712         estimate D2E/DX2                !
 ! A62   A(15,32,35)           109.4712         estimate D2E/DX2                !
 ! A63   A(33,32,34)           109.4712         estimate D2E/DX2                !
 ! A64   A(33,32,35)           109.4712         estimate D2E/DX2                !
 ! A65   A(34,32,35)           109.4712         estimate D2E/DX2                !
 ! A66   A(14,36,37)           109.4712         estimate D2E/DX2                !
 ! A67   A(14,36,38)           109.4712         estimate D2E/DX2                !
 ! A68   A(14,36,39)           109.4712         estimate D2E/DX2                !
 ! A69   A(37,36,38)           109.4712         estimate D2E/DX2                !
 ! A70   A(37,36,39)           109.4712         estimate D2E/DX2                !
 ! A71   A(38,36,39)           109.4712         estimate D2E/DX2                !
 ! A72   A(3,40,41)            120.0            estimate D2E/DX2                !
 ! A73   A(3,40,42)            120.0            estimate D2E/DX2                !
 ! A74   A(41,40,42)           120.0            estimate D2E/DX2                !
 ! D1    D(6,1,2,3)             -0.0001         estimate D2E/DX2                !
 ! D2    D(6,1,2,11)           179.9999         estimate D2E/DX2                !
 ! D3    D(7,1,2,3)            179.9998         estimate D2E/DX2                !
 ! D4    D(7,1,2,11)            -0.0002         estimate D2E/DX2                !
 ! D5    D(2,1,6,5)              0.0001         estimate D2E/DX2                !
 ! D6    D(2,1,6,10)           179.9999         estimate D2E/DX2                !
 ! D7    D(7,1,6,5)           -179.9998         estimate D2E/DX2                !
 ! D8    D(7,1,6,10)             0.0            estimate D2E/DX2                !
 ! D9    D(1,2,3,4)              0.0            estimate D2E/DX2                !
 ! D10   D(1,2,3,40)           179.9999         estimate D2E/DX2                !
 ! D11   D(11,2,3,4)          -180.0            estimate D2E/DX2                !
 ! D12   D(11,2,3,40)           -0.0001         estimate D2E/DX2                !
 ! D13   D(1,2,11,12)          -32.9062         estimate D2E/DX2                !
 ! D14   D(1,2,11,13)           86.8085         estimate D2E/DX2                !
 ! D15   D(1,2,11,43)         -153.0489         estimate D2E/DX2                !
 ! D16   D(3,2,11,12)          147.0938         estimate D2E/DX2                !
 ! D17   D(3,2,11,13)          -93.1915         estimate D2E/DX2                !
 ! D18   D(3,2,11,43)           26.9511         estimate D2E/DX2                !
 ! D19   D(2,3,4,5)              0.0001         estimate D2E/DX2                !
 ! D20   D(2,3,4,8)            179.9999         estimate D2E/DX2                !
 ! D21   D(40,3,4,5)          -179.9998         estimate D2E/DX2                !
 ! D22   D(40,3,4,8)             0.0            estimate D2E/DX2                !
 ! D23   D(2,3,40,41)         -180.0            estimate D2E/DX2                !
 ! D24   D(2,3,40,42)            0.0001         estimate D2E/DX2                !
 ! D25   D(4,3,40,41)           -0.0001         estimate D2E/DX2                !
 ! D26   D(4,3,40,42)         -180.0            estimate D2E/DX2                !
 ! D27   D(3,4,5,6)             -0.0001         estimate D2E/DX2                !
 ! D28   D(3,4,5,9)           -180.0            estimate D2E/DX2                !
 ! D29   D(8,4,5,6)           -179.9999         estimate D2E/DX2                !
 ! D30   D(8,4,5,9)              0.0002         estimate D2E/DX2                !
 ! D31   D(4,5,6,1)              0.0            estimate D2E/DX2                !
 ! D32   D(4,5,6,10)          -179.9998         estimate D2E/DX2                !
 ! D33   D(9,5,6,1)            179.9999         estimate D2E/DX2                !
 ! D34   D(9,5,6,10)             0.0001         estimate D2E/DX2                !
 ! D35   D(2,11,12,14)          89.7554         estimate D2E/DX2                !
 ! D36   D(2,11,12,19)         -90.2219         estimate D2E/DX2                !
 ! D37   D(13,11,12,14)        -30.277          estimate D2E/DX2                !
 ! D38   D(13,11,12,19)        149.7457         estimate D2E/DX2                !
 ! D39   D(43,11,12,14)       -150.1805         estimate D2E/DX2                !
 ! D40   D(43,11,12,19)         29.8423         estimate D2E/DX2                !
 ! D41   D(2,11,13,15)         -89.7554         estimate D2E/DX2                !
 ! D42   D(2,11,13,16)          90.2219         estimate D2E/DX2                !
 ! D43   D(12,11,13,15)         30.277          estimate D2E/DX2                !
 ! D44   D(12,11,13,16)       -149.7457         estimate D2E/DX2                !
 ! D45   D(43,11,13,15)        150.1805         estimate D2E/DX2                !
 ! D46   D(43,11,13,16)        -29.8423         estimate D2E/DX2                !
 ! D47   D(11,12,14,30)         -0.1478         estimate D2E/DX2                !
 ! D48   D(11,12,14,36)        179.9912         estimate D2E/DX2                !
 ! D49   D(19,12,14,30)        179.8295         estimate D2E/DX2                !
 ! D50   D(19,12,14,36)         -0.0316         estimate D2E/DX2                !
 ! D51   D(11,12,19,20)         -0.0113         estimate D2E/DX2                !
 ! D52   D(11,12,19,21)        179.9887         estimate D2E/DX2                !
 ! D53   D(14,12,19,20)       -179.9887         estimate D2E/DX2                !
 ! D54   D(14,12,19,21)          0.0113         estimate D2E/DX2                !
 ! D55   D(11,13,15,30)          0.1478         estimate D2E/DX2                !
 ! D56   D(11,13,15,32)       -179.9912         estimate D2E/DX2                !
 ! D57   D(16,13,15,30)       -179.8295         estimate D2E/DX2                !
 ! D58   D(16,13,15,32)          0.0316         estimate D2E/DX2                !
 ! D59   D(11,13,16,17)          0.0113         estimate D2E/DX2                !
 ! D60   D(11,13,16,18)       -179.9887         estimate D2E/DX2                !
 ! D61   D(15,13,16,17)        179.9887         estimate D2E/DX2                !
 ! D62   D(15,13,16,18)         -0.0113         estimate D2E/DX2                !
 ! D63   D(12,14,30,15)         31.5677         estimate D2E/DX2                !
 ! D64   D(12,14,30,31)        151.3485         estimate D2E/DX2                !
 ! D65   D(36,14,30,15)       -148.5712         estimate D2E/DX2                !
 ! D66   D(36,14,30,31)        -28.7904         estimate D2E/DX2                !
 ! D67   D(12,14,36,37)        -90.0679         estimate D2E/DX2                !
 ! D68   D(12,14,36,38)         29.9321         estimate D2E/DX2                !
 ! D69   D(12,14,36,39)        149.9321         estimate D2E/DX2                !
 ! D70   D(30,14,36,37)         90.0679         estimate D2E/DX2                !
 ! D71   D(30,14,36,38)       -149.9321         estimate D2E/DX2                !
 ! D72   D(30,14,36,39)        -29.9321         estimate D2E/DX2                !
 ! D73   D(13,15,30,14)        -31.5677         estimate D2E/DX2                !
 ! D74   D(13,15,30,31)       -151.3485         estimate D2E/DX2                !
 ! D75   D(32,15,30,14)        148.5712         estimate D2E/DX2                !
 ! D76   D(32,15,30,31)         28.7904         estimate D2E/DX2                !
 ! D77   D(13,15,32,33)        -29.9321         estimate D2E/DX2                !
 ! D78   D(13,15,32,34)         90.0679         estimate D2E/DX2                !
 ! D79   D(13,15,32,35)       -149.9321         estimate D2E/DX2                !
 ! D80   D(30,15,32,33)        149.9321         estimate D2E/DX2                !
 ! D81   D(30,15,32,34)        -90.0679         estimate D2E/DX2                !
 ! D82   D(30,15,32,35)         29.9321         estimate D2E/DX2                !
 ! D83   D(13,16,18,22)        150.0            estimate D2E/DX2                !
 ! D84   D(17,16,18,22)        -30.0            estimate D2E/DX2                !
 ! D85   D(16,18,22,23)       -180.0            estimate D2E/DX2                !
 ! D86   D(16,18,22,24)        -60.0            estimate D2E/DX2                !
 ! D87   D(16,18,22,25)         60.0            estimate D2E/DX2                !
 ! D88   D(12,19,21,26)       -150.0            estimate D2E/DX2                !
 ! D89   D(20,19,21,26)         30.0            estimate D2E/DX2                !
 ! D90   D(19,21,26,27)        180.0            estimate D2E/DX2                !
 ! D91   D(19,21,26,28)        -60.0            estimate D2E/DX2                !
 ! D92   D(19,21,26,29)         60.0            estimate D2E/DX2                !
 --------------------------------------------------------------------------------
 Trust Radius=3.00D-01 FncErr=1.00D-07 GrdErr=1.00D-06 EigMax=2.50D+02 EigMin=1.00D-04
 Number of steps in this run=    220 maximum allowed number of steps=    258.
 GradGradGradGradGradGradGradGradGradGradGradGradGradGradGradGradGradGrad

 Leave Link  103 at Wed Dec 10 06:26:25 2025, MaxMem=  1610612736 cpu:               0.1 elap:               0.0
 (Enter /opt/g16/l202.exe)
                          Input orientation:                          
 ---------------------------------------------------------------------
 Center     Atomic      Atomic             Coordinates (Angstroms)
 Number     Number       Type             X           Y           Z
 ---------------------------------------------------------------------
      1          6           0       -0.255410   -0.729531   -2.005177
      2          6           0       -0.119359   -1.145468   -0.673859
      3          6           0        0.606325   -2.305982   -0.373007
      4          6           0        1.195958   -3.050558   -1.403473
      5          6           0        1.059909   -2.634620   -2.734791
      6          6           0        0.334225   -1.474106   -3.035643
      7          1           0       -0.809488    0.156546   -2.234885
      8          1           0        1.750035   -3.936636   -1.173765
      9          1           0        1.510107   -3.203121   -3.521574
     10          1           0        0.230347   -1.156530   -4.052134
     11          6           0       -0.767308   -0.327252    0.458521
     12          6           0       -0.759316    1.160901    0.087949
     13          6           0       -2.216612   -0.786101    0.660915
     14          6           0       -1.799504    1.701606   -0.592253
     15          6           0       -3.222543   -0.199628   -0.032757
     16          6           0       -2.530303   -1.918542    1.656292
     17          8           0       -1.598424   -2.465108    2.301612
     18          8           0       -3.880541   -2.348998    1.847252
     19          6           0        0.436071    2.044645    0.490002
     20          8           0        1.403379    1.545414    1.121392
     21          8           0        0.446859    3.432572    0.145847
     22          6           0       -3.893728   -3.734855    2.199567
     23          1           0       -4.904046   -4.056944    2.342453
     24          1           0       -3.444703   -4.306722    1.414554
     25          1           0       -3.342302   -3.877870    3.105313
     26          6           0        1.796632    3.867680   -0.037714
     27          1           0        1.804704    4.906199   -0.295228
     28          1           0        2.345173    3.720811    0.869167
     29          1           0        2.249989    3.301601   -0.824430
     30          7           0       -2.961512    0.886310   -0.998454
     31          1           0       -3.767551    1.476489   -1.043056
     32          6           0       -4.669274   -0.678630    0.188888
     33          1           0       -4.664969   -1.714767    0.455911
     34          1           0       -5.116806   -0.109187    0.976511
     35          1           0       -5.231244   -0.544747   -0.711760
     36          6           0       -1.767222    3.198622   -0.952113
     37          1           0       -2.217199    3.764797   -0.163528
     38          1           0       -0.752569    3.512347   -1.082329
     39          1           0       -2.309467    3.358857   -1.860516
     40          7           0        0.749037   -2.742279    1.023481
     41          8           0        1.389901   -3.767148    1.289169
     42          8           0        0.228321   -2.084732    1.933503
     43          1           0       -0.215771   -0.473706    1.363649
 ---------------------------------------------------------------------
                    Distance matrix (angstroms):
                    1          2          3          4          5
     1  C    0.000000
     2  C    1.401400   0.000000
     3  C    2.427296   1.401400   0.000000
     4  C    2.802800   2.427296   1.401400   0.000000
     5  C    2.427296   2.802800   2.427296   1.401400   0.000000
     6  C    1.401400   2.427296   2.802800   2.427296   1.401400
     7  H    1.070000   2.146700   3.396345   3.872800   3.396345
     8  H    3.872800   3.396345   2.146700   1.070000   2.146700
     9  H    3.396345   3.872800   3.396345   2.146700   1.070000
    10  H    2.146700   3.396345   3.872800   3.396345   2.146700
    11  C    2.548270   1.540000   2.548270   3.838989   4.342800
    12  C    2.865106   2.511819   3.754562   4.876867   5.067882
    13  C    3.310221   2.511819   3.368680   4.586404   5.067883
    14  C    3.207960   3.306868   4.679406   5.675732   5.618680
    15  C    3.602099   3.306868   4.383232   5.434135   5.618681
    16  C    4.471604   3.440915   3.755875   4.952640   5.716992
    17  O    4.833668   3.575264   3.469845   4.677497   5.697440
    18  O    5.532221   4.685187   5.006332   6.068793   6.744238
    19  C    3.794748   3.440915   4.438663   5.488513   5.716991
    20  O    4.207421   3.575263   4.207348   5.247946   5.697439
    21  O    4.737424   4.685187   5.764169   6.707647   6.744237
    22  C    6.320538   5.404383   5.376829   6.273361   7.077918
    23  H    7.182157   6.361451   6.387783   7.228750   7.960538
    24  H    5.887482   5.041121   4.858926   5.572698   6.348584
    25  H    6.749670   5.668820   5.491920   6.450535   7.418352
    26  C    5.405195   5.404383   6.296297   7.077297   7.077916
    27  H    6.239346   6.361451   7.311478   8.056597   7.960536
    28  H    5.901730   5.668820   6.394436   7.234433   7.418350
    29  H    4.890931   5.041121   5.860922   6.464998   6.348581
    30  N    3.308689   3.508748   4.828185   5.739994   5.619933
    31  H    4.257621   4.507801   5.821241   6.727592   6.562588
    32  C    4.929372   4.654460   5.549410   6.524003   6.722897
    33  H    5.145081   4.718374   5.368722   6.292227   6.618228
    34  H    5.736590   5.363961   6.277048   7.359822   7.635665
    35  H    5.144512   5.147200   6.106874   6.933000   6.931006
    36  C    4.338768   4.654460   6.022438   6.930831   6.722895
    37  H    5.238251   5.363961   6.698547   7.722446   7.635664
    38  H    4.369479   4.718373   6.016867   6.853585   6.618226
    39  H    4.577662   5.147200   6.542547   7.319665   6.931004
    40  N    3.772644   2.486942   1.470000   2.486942   3.772644
    41  O    4.773561   3.606182   2.347728   2.793105   4.193300
    42  O    4.193300   2.793105   2.347728   3.606182   4.773561
    43  H    3.378759   2.147557   2.655005   4.036101   4.805634
                    6          7          8          9         10
     6  C    0.000000
     7  H    2.146700   0.000000
     8  H    3.396345   4.942800   0.000000
     9  H    2.146700   4.280590   2.471400   0.000000
    10  H    1.070000   2.471400   4.280590   2.471400   0.000000
    11  C    3.838989   2.736837   4.693509   5.412800   4.693509
    12  C    4.230358   2.531167   5.820108   6.101118   4.846670
    13  C    4.543640   3.354734   5.387598   6.101118   5.323313
    14  C    4.539615   2.462840   6.687836   6.602332   4.925445
    15  C    4.826202   3.286193   6.324054   6.602333   5.384562
    16  C    5.515188   4.733757   5.513912   6.692187   6.386547
    17  O    5.762249   5.298612   5.045376   6.642073   6.739946
    18  O    6.509405   5.689724   6.584112   7.655907   7.288631
    19  C    4.982184   3.541376   6.345892   6.692186   5.560651
    20  O    5.248003   4.253273   5.953217   6.642072   5.953309
    21  O    5.848937   4.240123   7.599005   7.655906   6.223325
    22  C    7.098873   6.657319   6.578157   7.887689   7.920828
    23  H    7.939424   7.447881   7.526956   8.732536   8.698571
    24  H    6.489088   6.339047   5.815640   7.080497   7.301670
    25  H    7.550250   7.156072   6.651756   8.241165   8.449767
    26  C    6.297690   5.039041   7.886706   7.887687   6.619026
    27  H    7.097920   5.758079   8.886537   8.732535   7.304082
    28  H    6.802838   5.682517   7.947594   8.241163   7.244318
    29  H    5.600624   4.608812   7.263887   7.080496   5.862760
    30  N    4.536914   2.586992   6.744644   6.563914   4.866839
    31  H    5.431481   3.451499   7.730638   7.476328   5.654248
    32  C    6.005447   4.633589   7.326593   7.637103   6.497764
    33  H    6.102525   5.060329   6.981750   7.494475   6.678189
    34  H    6.904645   5.379281   8.150249   8.586104   7.414596
    35  H    6.102343   4.729022   7.775386   7.772248   6.431279
    36  C    5.530964   3.437584   7.958149   7.637102   5.706817
    37  H    6.496531   4.392226   8.721903   8.586103   6.732844
    38  H    5.464547   3.548666   7.858673   7.494474   5.619989
    39  H    5.632723   3.555965   8.377076   7.772247   5.625172
    40  N    4.272800   4.631321   2.693766   4.631321   5.342800
    41  O    5.007643   5.714161   2.494888   4.845186   6.057179
    42  O    5.007643   4.845186   3.924319   5.714161   6.057179
    43  H    4.545005   3.701239   4.721731   5.856088   5.476859
                   11         12         13         14         15
    11  C    0.000000
    12  C    1.533619   0.000000
    13  C    1.533619   2.498564   0.000000
    14  C    2.507153   1.355370   2.816575   0.000000
    15  C    2.507153   2.816575   1.355370   2.439829   0.000000
    16  C    2.659889   3.883177   1.540000   4.323829   2.507339
    17  O    2.942476   4.330398   2.427572   5.077045   3.635854
    18  O    3.963363   5.015634   2.572683   5.166168   2.930390
    19  C    2.659889   1.540000   3.883177   2.507339   4.323829
    20  O    2.942476   2.427572   4.330398   3.635854   5.077045
    21  O    3.963363   2.572683   5.015634   2.930390   5.166168
    22  C    4.941406   6.184811   3.724958   6.460274   4.234570
    23  H    5.879830   7.034734   4.555028   7.170186   4.831972
    24  H    4.890667   6.234267   3.804070   6.544765   4.360307
    25  H    5.122790   6.416035   4.098938   6.868971   4.836453
    26  C    4.941406   3.724958   6.184811   4.234570   6.460274
    27  H    5.879830   4.555028   7.034734   4.831973   7.170187
    28  H    5.122790   4.098938   6.416035   4.836453   6.868971
    29  H    4.890667   3.804070   6.234267   4.360307   6.544765
    30  N    2.900007   2.470898   2.470898   1.476472   1.476472
    31  H    3.809157   3.229279   3.229279   2.031529   2.031529
    32  C    3.927023   4.322249   2.499982   3.809368   1.540000
    33  H    4.137265   4.864050   2.626575   4.580517   2.148263
    34  H    4.385658   4.624974   2.994818   4.092003   2.148263
    35  H    4.619912   4.852516   3.321219   4.103319   2.148263
    36  C    3.927023   2.499982   4.322249   1.540000   3.809368
    37  H    4.385658   2.994818   4.624974   2.148263   4.092003
    38  H    4.137265   2.626575   4.864050   2.148263   4.580517
    39  H    4.619912   3.321218   4.852516   2.148263   4.103319
    40  N    2.907032   4.287792   3.571157   5.371570   4.832614
    41  O    4.144443   5.508878   4.721047   6.604492   5.979074
    42  O    2.501116   3.862075   3.046903   4.982757   4.396390
    43  H    1.070000   2.143547   2.143547   3.326522   3.326522
                   16         17         18         19         20
    16  C    0.000000
    17  O    1.258400   0.000000
    18  O    1.430000   2.329803   0.000000
    19  C    5.085908   5.268678   6.307088   0.000000
    20  O    5.268678   5.146652   6.604024   1.258400   0.000000
    21  O    6.307088   6.604024   7.419415   1.430000   2.329803
    22  C    2.335180   2.625089   1.430000   7.421078   7.556656
    23  H    3.267757   3.669162   2.051796   8.317320   8.524143
    24  H    2.568651   2.754481   2.051796   7.500338   7.605087
    25  H    2.568651   2.383892   2.051796   7.496141   7.474586
    26  C    7.421078   7.556656   8.627310   2.335180   2.625089
    27  H    8.317320   8.524143   9.463092   3.267757   3.669162
    28  H    7.496141   7.474586   8.749785   2.568651   2.383892
    29  H    7.500338   7.605087   8.755030   2.568651   2.754480
    30  N    3.885976   4.896983   4.405664   3.885976   4.896983
    31  H    4.510377   5.606078   4.795936   4.510377   5.606078
    32  C    2.875040   4.133428   2.482419   5.794087   6.533992
    33  H    2.457486   3.656956   1.718548   6.336793   6.920730
    34  H    3.228911   4.436808   2.702460   5.975795   6.728411
    35  H    3.845785   5.095643   3.410024   6.345679   7.193570
    36  C    5.794087   6.533992   6.563433   2.875040   4.133428
    37  H    5.975795   6.728411   6.647438   3.228911   4.436808
    38  H    6.336793   6.920729   7.260993   2.457486   3.656955
    39  H    6.345679   7.193570   6.985372   3.845785   5.095643
    40  N    3.439922   2.687194   4.718714   4.826716   4.338441
    41  O    4.349727   3.413273   5.486362   5.943518   5.315229
    42  O    2.777493   1.901890   4.118254   4.379339   3.901057
    43  H    2.744130   2.599458   4.145013   2.744130   2.599458
                   21         22         23         24         25
    21  O    0.000000
    22  C    8.627310   0.000000
    23  H    9.463092   1.070000   0.000000
    24  H    8.755030   1.070000   1.747303   0.000000
    25  H    8.749785   1.070000   1.747303   1.747303   0.000000
    26  C    1.430000   9.756237  10.647250   9.818428   9.812278
    27  H    2.051796  10.647251  11.502288  10.740463  10.733835
    28  H    2.051796   9.812278  10.733835   9.912688   9.751290
    29  H    2.051796   9.818428  10.740463   9.763664   9.912688
    30  N    4.405664   5.696624   6.274620   5.746621   6.299469
    31  H    4.795936   6.139107   6.585756   6.292027   6.786675
    32  C    6.563433   3.739628   4.013224   4.020558   4.527861
    33  H    7.260993   2.777752   3.016951   3.020973   3.667123
    34  H    6.647438   4.017120   4.182804   4.539505   4.677994
    35  H    6.985372   4.521234   4.665919   4.676044   5.408128
    36  C    2.482419   7.907479   8.563707   8.046443   8.307847
    37  H    2.702460   8.039885   8.641685   8.315439   8.388178
    38  H    1.718548   8.553342   9.287522   8.638278   8.880223
    39  H    3.410024   8.325557   8.910156   8.412843   8.837217
    40  N    6.244224   4.891181   5.951922   4.493092   4.728915
    41  O    7.350679   5.361585   6.388047   4.866236   5.069949
    42  O    5.803801   4.448031   5.513442   4.324078   4.163872
    43  H    4.145013   4.986103   5.981436   5.012046   4.939324
                   26         27         28         29         30
    26  C    0.000000
    27  H    1.070000   0.000000
    28  H    1.070000   1.747303   0.000000
    29  H    1.070000   1.747303   1.747303   0.000000
    30  N    5.696624   6.274620   6.299469   5.746621   0.000000
    31  H    6.139107   6.585756   6.786675   6.292027   1.000000
    32  C    7.907479   8.563707   8.307847   8.046443   2.602934
    33  H    8.553342   9.287522   8.880223   8.638278   3.432570
    34  H    8.039885   8.641685   8.388178   8.315439   3.088170
    35  H    8.325557   8.910156   8.837217   8.412843   2.698481
    36  C    3.739628   4.013224   4.527861   4.020558   2.602934
    37  H    4.017120   4.182804   4.677994   4.539505   3.088170
    38  H    2.777752   3.016951   3.667123   3.020973   3.432570
    39  H    4.521234   4.665919   5.408128   4.676044   2.698481
    40  N    6.776072   7.832793   6.659053   6.495854   5.569834
    41  O    7.759939   8.826626   7.560323   7.427938   6.769245
    42  O    6.463474   7.505021   6.270422   6.380119   5.253426
    43  H    4.986103   5.981436   4.939324   5.012046   3.868885
                   31         32         33         34         35
    31  H    0.000000
    32  C    2.641085   0.000000
    33  H    3.638183   1.070000   0.000000
    34  H    2.900605   1.070000   1.747303   0.000000
    35  H    2.517450   1.070000   1.747303   1.747303   0.000000
    36  C    2.641085   4.975628   5.875446   5.087328   5.105883
    37  H    2.900605   5.087328   6.033316   4.971435   5.287457
    38  H    3.638183   5.875446   6.707889   6.033316   6.054409
    39  H    2.517450   5.105883   6.054409   5.287457   5.009446
    40  N    6.516759   5.857755   5.539799   6.429890   6.603330
    41  O    7.715848   6.889352   6.447328   7.470988   7.630671
    42  O    6.124474   5.385837   5.124884   5.778320   6.259058
    43  H    4.712817   4.610396   4.707397   4.929797   5.428383
                   36         37         38         39         40
    36  C    0.000000
    37  H    1.070000   0.000000
    38  H    1.070000   1.747303   0.000000
    39  H    1.070000   1.747303   1.747303   0.000000
    40  N    6.747506   7.249109   6.768279   7.409166   0.000000
    41  O    7.969487   8.476538   7.950172   8.624719   1.237600
    42  O    6.342144   6.677955   6.433092   7.104055   1.237600
    43  H    4.610396   4.929797   4.707397   5.428383   2.488572
                   41         42         43
    41  O    0.000000
    42  O    2.143586   0.000000
    43  H    3.664763   1.765602   0.000000
 Stoichiometry    C17H18N2O6
 Framework group  C1[X(C17H18N2O6)]
 Deg. of freedom   123
 Full point group                 C1      NOp   1
 Largest Abelian subgroup         C1      NOp   1
 Largest concise Abelian subgroup C1      NOp   1
                         Standard orientation:                         
 ---------------------------------------------------------------------
 Center     Atomic      Atomic             Coordinates (Angstroms)
 Number     Number       Type             X           Y           Z
 ---------------------------------------------------------------------
      1          6           0        0.620003    1.086371    1.860946
      2          6           0       -0.051921    1.088539    0.631135
      3          6           0       -0.909046    2.147538    0.302839
      4          6           0       -1.094247    3.204370    1.204354
      5          6           0       -0.422321    3.202204    2.434164
      6          6           0        0.434804    2.143204    2.762460
      7          1           0        1.274435    0.277800    2.111609
      8          1           0       -1.748680    4.012941    0.953692
      9          1           0       -0.563726    4.009118    3.122491
     10          1           0        0.947832    2.141548    3.701449
     11          6           0        0.151596   -0.072815   -0.359540
     12          6           0        1.584289   -0.606677   -0.239667
     13          6           0       -0.833588   -1.203084   -0.037219
     14          6           0        1.872419   -1.600749    0.635449
     15          6           0       -0.488621   -2.183137    0.833138
     16          6           0       -2.221109   -1.224307   -0.705002
     17          8           0       -2.544317   -0.315630   -1.513342
     18          8           0       -3.142241   -2.276602   -0.406518
     19          6           0        2.700560   -0.010300   -1.117092
     20          8           0        2.436135    0.912877   -1.930354
     21          8           0        4.037580   -0.505586   -1.007682
     22          6           0       -4.480405   -1.786083   -0.523179
     23          1           0       -5.169643   -2.573465   -0.299837
     24          1           0       -4.625710   -0.979184    0.164353
     25          1           0       -4.647144   -1.438570   -1.521343
     26          6           0        4.960775    0.542733   -1.313686
     27          1           0        5.961202    0.172134   -1.231820
     28          1           0        4.789248    0.889066   -2.311449
     29          1           0        4.822657    1.351405   -0.626756
     30          7           0        0.830545   -2.195403    1.496178
     31          1           0        1.080905   -3.142966    1.694780
     32          6           0       -1.495966   -3.306931    1.139640
     33          1           0       -2.492296   -2.928499    1.044692
     34          1           0       -1.352978   -4.112073    0.449566
     35          1           0       -1.342532   -3.661040    2.137620
     36          6           0        3.318984   -2.119248    0.736485
     37          1           0        3.457915   -2.925390    0.046751
     38          1           0        3.998976   -1.327324    0.501179
     39          1           0        3.505144   -2.465284    1.731726
     40          7           0       -1.613860    2.149813   -0.987173
     41          8           0       -2.370802    3.085034   -1.277097
     42          8           0       -1.450307    1.216506   -1.783316
     43          1           0       -0.018023    0.276370   -1.356635
 ---------------------------------------------------------------------
 Rotational constants (GHZ):           0.2711842           0.1977327           0.1569225
 Leave Link  202 at Wed Dec 10 06:26:25 2025, MaxMem=  1610612736 cpu:               0.0 elap:               0.0
 (Enter /opt/g16/l301.exe)
 Standard basis: 6-311++G(2d,3p) (5D, 7F)
 Ernie: Thresh=  0.10000D-02 Tol=  0.10000D-05 Strict=F.
 There are   959 symmetry adapted cartesian basis functions of A   symmetry.
 There are   909 symmetry adapted basis functions of A   symmetry.
   909 basis functions,  1320 primitive gaussians,   959 cartesian basis functions
    91 alpha electrons       91 beta electrons
       nuclear repulsion energy      2334.9042151891 Hartrees.
 IExCor=  402 DFT=T Ex+Corr=B3LYP ExCW=0 ScaHFX=  0.200000
 ScaDFX=  0.800000  0.720000  1.000000  0.810000 ScalE2=  1.000000  1.000000
 IRadAn=      5 IRanWt=     -1 IRanGd=            0 ICorTp=0 IEmpDi=  4
 NAtoms=   43 NActive=   43 NUniq=   43 SFac= 1.00D+00 NAtFMM=   60 NAOKFM=F Big=F
 Integral buffers will be    131072 words long.
 Raffenetti 2 integral format.
 Two-electron integral symmetry is turned on.
 Leave Link  301 at Wed Dec 10 06:26:25 2025, MaxMem=  1610612736 cpu:               0.6 elap:               0.1
 (Enter /opt/g16/l302.exe)
 NPDir=0 NMtPBC=     1 NCelOv=     1 NCel=       1 NClECP=     1 NCelD=      1
         NCelK=      1 NCelE2=     1 NClLst=     1 CellRange=     0.0.
 One-electron integrals computed using PRISM.
 One-electron integral symmetry used in STVInt
 NBasis=   909 RedAO= T EigKep=  1.08D-06  NBF=   909
 NBsUse=   903 1.00D-06 EigRej=  6.20D-07 NBFU=   903
 Precomputing XC quadrature grid using
 IXCGrd= 4 IRadAn=           5 IRanWt=          -1 IRanGd=           0 AccXCQ= 0.00D+00.
 Generated NRdTot=       0 NPtTot=           0 NUsed=           0 NTot=          32
 NSgBfM=   947   947   947   947   947 MxSgAt=    43 MxSgA2=    43.
 Leave Link  302 at Wed Dec 10 06:26:26 2025, MaxMem=  1610612736 cpu:              13.1 elap:               1.1
 (Enter /opt/g16/l303.exe)
 DipDrv:  MaxL=1.
 Leave Link  303 at Wed Dec 10 06:26:26 2025, MaxMem=  1610612736 cpu:               1.5 elap:               0.2
 (Enter /opt/g16/l401.exe)
 ExpMin= 3.60D-02 ExpMax= 8.59D+03 ExpMxC= 1.30D+03 IAcc=3 IRadAn=         5 AccDes= 0.00D+00
 Harris functional with IExCor=  402 and IRadAn=       5 diagonalized for initial guess.
 HarFok:  IExCor=  402 AccDes= 0.00D+00 IRadAn=         5 IDoV= 1 UseB2=F ITyADJ=14
 ICtDFT=  3500011 ScaDFX=  1.000000  1.000000  1.000000  1.000000
 FoFCou: FMM=F IPFlag=           0 FMFlag=      100000 FMFlg1=           0
         NFxFlg=           0 DoJE=T BraDBF=F KetDBF=T FulRan=T
         wScrn=  0.000000 ICntrl=       500 IOpCl=  0 I1Cent=   200000004 NGrid=           0
         NMat0=    1 NMatS0=      1 NMatT0=    0 NMatD0=    1 NMtDS0=    0 NMtDT0=    0
 Petite list used in FoFCou.
 Harris En= -1219.75102525555    
 JPrj=0 DoOrth=F DoCkMO=F.
 Leave Link  401 at Wed Dec 10 06:26:35 2025, MaxMem=  1610612736 cpu:             104.0 elap:               8.7
 (Enter /opt/g16/l502.exe)
 Integral symmetry usage will be decided dynamically.
 Closed shell SCF:
 Using DIIS extrapolation, IDIIS=  1040.
 NGot=  1610612736 LenX=  1608752414 LenY=  1607831774
 Requested convergence on RMS density matrix=1.00D-08 within 128 cycles.
 Requested convergence on MAX density matrix=1.00D-06.
 Requested convergence on             energy=1.00D-06.
 No special actions if energy rises.
 Fock matrices will be formed incrementally for  20 cycles.

 Cycle   1  Pass 1  IDiag  1:
 FoFJK:  IHMeth= 1 ICntrl=       0 DoSepK=F KAlg= 0 I1Cent=           0 FoldK=F
 IRaf= 800000000 NMat=       1 IRICut=       1 DoRegI=T DoRafI=F ISym2E= 0 IDoP0=0 IntGTp=1.
 FoFCou: FMM=F IPFlag=           0 FMFlag=      100000 FMFlg1=           0
         NFxFlg=           0 DoJE=F BraDBF=F KetDBF=F FulRan=T
         wScrn=  0.000000 ICntrl=         0 IOpCl=  0 I1Cent=           0 NGrid=           0
         NMat0=    1 NMatS0=      1 NMatT0=    0 NMatD0=    1 NMtDS0=    0 NMtDT0=    0
 Symmetry not used in FoFCou.
 E= -1218.87533563395    
 DIIS: error= 1.61D-02 at cycle   1 NSaved=   1.
 NSaved= 1 IEnMin= 1 EnMin= -1218.87533563395     IErMin= 1 ErrMin= 1.61D-02
 ErrMax= 1.61D-02  0.00D+00 EMaxC= 1.00D-01 BMatC= 9.79D-01 BMatP= 9.79D-01
 IDIUse=3 WtCom= 8.39D-01 WtEn= 1.61D-01
 Coeff-Com:  0.100D+01
 Coeff-En:   0.100D+01
 Coeff:      0.100D+01
 Gap=     0.170 Goal=   None    Shift=    0.000
 GapD=    0.170 DampG=1.000 DampE=0.500 DampFc=0.5000 IDamp=-1.
 Damping current iteration by 5.00D-01
 RMSDP=1.59D-02 MaxDP=2.49D+00              OVMax= 4.38D-01

 Cycle   2  Pass 1  IDiag  1:
 RMSU=  7.36D-03    CP:  1.13D+00
 E= -1218.92028932400     Delta-E=       -0.044953690055 Rises=F Damp=T
 DIIS: error= 9.26D-03 at cycle   2 NSaved=   2.
 NSaved= 2 IEnMin= 2 EnMin= -1218.92028932400     IErMin= 2 ErrMin= 9.26D-03
 ErrMax= 9.26D-03  0.00D+00 EMaxC= 1.00D-01 BMatC= 2.85D-01 BMatP= 9.79D-01
 IDIUse=3 WtCom= 9.07D-01 WtEn= 9.26D-02
 Coeff-Com:  0.300D+00 0.700D+00
 Coeff-En:   0.475D+00 0.525D+00
 Coeff:      0.316D+00 0.684D+00
 Gap=     0.220 Goal=   None    Shift=    0.000
 RMSDP=7.09D-03 MaxDP=1.00D+00 DE=-4.50D-02 OVMax= 3.56D-01

 Cycle   3  Pass 1  IDiag  1:
 RMSU=  4.42D-03    CP:  1.01D+00  3.43D-01
 E= -1219.34056926018     Delta-E=       -0.420279936172 Rises=F Damp=F
 DIIS: error= 9.50D-03 at cycle   3 NSaved=   3.
 NSaved= 3 IEnMin= 3 EnMin= -1219.34056926018     IErMin= 2 ErrMin= 9.26D-03
 ErrMax= 9.50D-03  0.00D+00 EMaxC= 1.00D-01 BMatC= 3.46D-01 BMatP= 2.85D-01
 IDIUse=3 WtCom= 9.31D-02 WtEn= 9.07D-01
 Coeff-Com:  0.122D+00 0.500D+00 0.378D+00
 Coeff-En:   0.000D+00 0.187D+00 0.813D+00
 Coeff:      0.114D-01 0.216D+00 0.773D+00
 Gap=     0.287 Goal=   None    Shift=    0.000
 RMSDP=6.63D-03 MaxDP=5.52D-01 DE=-4.20D-01 OVMax= 4.63D-01

 Cycle   4  Pass 1  IDiag  1:
 RMSU=  4.40D-03    CP:  1.04D+00  6.54D-01  1.28D-02
 E= -1218.42313071678     Delta-E=        0.917438543392 Rises=F Damp=F
 DIIS: error= 2.20D-02 at cycle   4 NSaved=   4.
 NSaved= 4 IEnMin= 3 EnMin= -1219.34056926018     IErMin= 2 ErrMin= 9.26D-03
 ErrMax= 2.20D-02  0.00D+00 EMaxC= 1.00D-01 BMatC= 1.42D+00 BMatP= 2.85D-01
 IDIUse=2 WtCom= 0.00D+00 WtEn= 1.00D+00
 Coeff-En:   0.000D+00 0.000D+00 0.728D+00 0.272D+00
 Coeff:      0.000D+00 0.000D+00 0.728D+00 0.272D+00
 Gap=     0.150 Goal=   None    Shift=    0.000
 RMSDP=3.97D-03 MaxDP=5.23D-01 DE= 9.17D-01 OVMax= 4.05D-01

 Cycle   5  Pass 1  IDiag  1:
 RMSU=  1.41D-03    CP:  1.01D+00  4.97D-01  4.79D-01  3.61D-01
 E= -1219.56736672082     Delta-E=       -1.144236004033 Rises=F Damp=F
 DIIS: error= 4.50D-03 at cycle   5 NSaved=   5.
 NSaved= 5 IEnMin= 5 EnMin= -1219.56736672082     IErMin= 5 ErrMin= 4.50D-03
 ErrMax= 4.50D-03  0.00D+00 EMaxC= 1.00D-01 BMatC= 7.95D-02 BMatP= 2.85D-01
 IDIUse=3 WtCom= 9.55D-01 WtEn= 4.50D-02
 Coeff-Com:  0.205D-01 0.161D-01 0.354D+00 0.473D-01 0.562D+00
 Coeff-En:   0.000D+00 0.000D+00 0.242D+00 0.000D+00 0.758D+00
 Coeff:      0.195D-01 0.154D-01 0.349D+00 0.452D-01 0.571D+00
 Gap=     0.146 Goal=   None    Shift=    0.000
 RMSDP=1.17D-03 MaxDP=1.02D-01 DE=-1.14D+00 OVMax= 5.71D-02

 Cycle   6  Pass 1  IDiag  1:
 RMSU=  7.49D-04    CP:  9.99D-01  4.42D-01  5.65D-01  2.73D-01  6.54D-01
 E= -1219.62159154991     Delta-E=       -0.054224829089 Rises=F Damp=F
 DIIS: error= 2.36D-03 at cycle   6 NSaved=   6.
 NSaved= 6 IEnMin= 6 EnMin= -1219.62159154991     IErMin= 6 ErrMin= 2.36D-03
 ErrMax= 2.36D-03  0.00D+00 EMaxC= 1.00D-01 BMatC= 1.42D-02 BMatP= 7.95D-02
 IDIUse=3 WtCom= 9.76D-01 WtEn= 2.36D-02
 Coeff-Com: -0.245D-02-0.207D-02 0.151D+00-0.323D-01 0.458D+00 0.427D+00
 Coeff-En:   0.000D+00 0.000D+00 0.000D+00 0.000D+00 0.719D-01 0.928D+00
 Coeff:     -0.239D-02-0.202D-02 0.147D+00-0.316D-01 0.449D+00 0.439D+00
 Gap=     0.151 Goal=   None    Shift=    0.000
 RMSDP=4.03D-04 MaxDP=3.94D-02 DE=-5.42D-02 OVMax= 2.49D-02

 Cycle   7  Pass 1  IDiag  1:
 RMSU=  1.84D-04    CP:  1.00D+00  4.51D-01  5.74D-01  2.75D-01  7.74D-01
                    CP:  5.96D-01
 E= -1219.63221816380     Delta-E=       -0.010626613891 Rises=F Damp=F
 DIIS: error= 4.27D-04 at cycle   7 NSaved=   7.
 NSaved= 7 IEnMin= 7 EnMin= -1219.63221816380     IErMin= 7 ErrMin= 4.27D-04
 ErrMax= 4.27D-04  0.00D+00 EMaxC= 1.00D-01 BMatC= 5.95D-04 BMatP= 1.42D-02
 IDIUse=3 WtCom= 9.96D-01 WtEn= 4.27D-03
 Coeff-Com: -0.826D-03 0.443D-02 0.688D-01-0.233D-01 0.215D+00 0.241D+00
 Coeff-Com:  0.495D+00
 Coeff-En:   0.000D+00 0.000D+00 0.000D+00 0.000D+00 0.000D+00 0.000D+00
 Coeff-En:   0.100D+01
 Coeff:     -0.822D-03 0.441D-02 0.685D-01-0.232D-01 0.214D+00 0.240D+00
 Coeff:      0.497D+00
 Gap=     0.153 Goal=   None    Shift=    0.000
 RMSDP=1.42D-04 MaxDP=3.43D-02 DE=-1.06D-02 OVMax= 7.62D-03

 Cycle   8  Pass 1  IDiag  1:
 RMSU=  8.76D-05    CP:  1.00D+00  4.58D-01  5.86D-01  2.70D-01  7.79D-01
                    CP:  5.91D-01  6.78D-01
 E= -1219.63261831781     Delta-E=       -0.000400154011 Rises=F Damp=F
 DIIS: error= 1.87D-04 at cycle   8 NSaved=   8.
 NSaved= 8 IEnMin= 8 EnMin= -1219.63261831781     IErMin= 8 ErrMin= 1.87D-04
 ErrMax= 1.87D-04  0.00D+00 EMaxC= 1.00D-01 BMatC= 1.16D-04 BMatP= 5.95D-04
 IDIUse=3 WtCom= 9.98D-01 WtEn= 1.87D-03
 Coeff-Com:  0.790D-03 0.970D-03 0.163D-01-0.702D-02 0.385D-01 0.432D-01
 Coeff-Com:  0.298D+00 0.609D+00
 Coeff-En:   0.000D+00 0.000D+00 0.000D+00 0.000D+00 0.000D+00 0.000D+00
 Coeff-En:   0.120D+00 0.880D+00
 Coeff:      0.788D-03 0.968D-03 0.163D-01-0.701D-02 0.384D-01 0.431D-01
 Coeff:      0.298D+00 0.610D+00
 Gap=     0.153 Goal=   None    Shift=    0.000
 RMSDP=6.17D-05 MaxDP=8.95D-03 DE=-4.00D-04 OVMax= 4.70D-03

 Cycle   9  Pass 1  IDiag  1:
 RMSU=  3.39D-05    CP:  1.00D+00  4.54D-01  5.88D-01  2.68D-01  7.75D-01
                    CP:  5.75D-01  7.74D-01  8.32D-01
 E= -1219.63269844269     Delta-E=       -0.000080124878 Rises=F Damp=F
 DIIS: error= 9.78D-05 at cycle   9 NSaved=   9.
 NSaved= 9 IEnMin= 9 EnMin= -1219.63269844269     IErMin= 9 ErrMin= 9.78D-05
 ErrMax= 9.78D-05  0.00D+00 EMaxC= 1.00D-01 BMatC= 2.69D-05 BMatP= 1.16D-04
 IDIUse=1 WtCom= 1.00D+00 WtEn= 0.00D+00
 Coeff-Com:  0.643D-03-0.113D-02 0.221D-02-0.856D-03-0.436D-02-0.558D-02
 Coeff-Com:  0.135D+00 0.435D+00 0.439D+00
 Coeff:      0.643D-03-0.113D-02 0.221D-02-0.856D-03-0.436D-02-0.558D-02
 Coeff:      0.135D+00 0.435D+00 0.439D+00
 Gap=     0.153 Goal=   None    Shift=    0.000
 RMSDP=2.16D-05 MaxDP=1.54D-03 DE=-8.01D-05 OVMax= 1.41D-03

 Cycle  10  Pass 1  IDiag  1:
 RMSU=  1.48D-05    CP:  1.00D+00  4.53D-01  5.88D-01  2.69D-01  7.74D-01
                    CP:  5.78D-01  7.73D-01  8.79D-01  6.21D-01
 E= -1219.63272234813     Delta-E=       -0.000023905442 Rises=F Damp=F
 DIIS: error= 2.20D-05 at cycle  10 NSaved=  10.
 NSaved=10 IEnMin=10 EnMin= -1219.63272234813     IErMin=10 ErrMin= 2.20D-05
 ErrMax= 2.20D-05  0.00D+00 EMaxC= 1.00D-01 BMatC= 1.75D-06 BMatP= 2.69D-05
 IDIUse=1 WtCom= 1.00D+00 WtEn= 0.00D+00
 Coeff-Com:  0.298D-03-0.601D-03 0.122D-04-0.122D-03-0.523D-02-0.454D-02
 Coeff-Com:  0.613D-01 0.218D+00 0.263D+00 0.468D+00
 Coeff:      0.298D-03-0.601D-03 0.122D-04-0.122D-03-0.523D-02-0.454D-02
 Coeff:      0.613D-01 0.218D+00 0.263D+00 0.468D+00
 Gap=     0.153 Goal=   None    Shift=    0.000
 RMSDP=6.70D-06 MaxDP=5.69D-04 DE=-2.39D-05 OVMax= 4.32D-04

 Cycle  11  Pass 1  IDiag  1:
 RMSU=  4.30D-06    CP:  1.00D+00  4.53D-01  5.87D-01  2.69D-01  7.74D-01
                    CP:  5.80D-01  7.79D-01  8.69D-01  6.38D-01  7.43D-01
 E= -1219.63272360832     Delta-E=       -0.000001260191 Rises=F Damp=F
 DIIS: error= 1.01D-05 at cycle  11 NSaved=  11.
 NSaved=11 IEnMin=11 EnMin= -1219.63272360832     IErMin=11 ErrMin= 1.01D-05
 ErrMax= 1.01D-05  0.00D+00 EMaxC= 1.00D-01 BMatC= 4.24D-07 BMatP= 1.75D-06
 IDIUse=1 WtCom= 1.00D+00 WtEn= 0.00D+00
 Coeff-Com:  0.469D-04-0.178D-03-0.594D-03 0.175D-03-0.296D-02-0.126D-02
 Coeff-Com:  0.151D-01 0.621D-01 0.856D-01 0.320D+00 0.522D+00
 Coeff:      0.469D-04-0.178D-03-0.594D-03 0.175D-03-0.296D-02-0.126D-02
 Coeff:      0.151D-01 0.621D-01 0.856D-01 0.320D+00 0.522D+00
 Gap=     0.153 Goal=   None    Shift=    0.000
 RMSDP=2.62D-06 MaxDP=2.05D-04 DE=-1.26D-06 OVMax= 1.38D-04

 Cycle  12  Pass 1  IDiag  1:
 RMSU=  1.51D-06    CP:  1.00D+00  4.53D-01  5.87D-01  2.70D-01  7.73D-01
                    CP:  5.81D-01  7.79D-01  8.71D-01  6.41D-01  8.29D-01
                    CP:  9.89D-01
 E= -1219.63272391011     Delta-E=       -0.000000301792 Rises=F Damp=F
 DIIS: error= 3.36D-06 at cycle  12 NSaved=  12.
 NSaved=12 IEnMin=12 EnMin= -1219.63272391011     IErMin=12 ErrMin= 3.36D-06
 ErrMax= 3.36D-06  0.00D+00 EMaxC= 1.00D-01 BMatC= 5.14D-08 BMatP= 4.24D-07
 IDIUse=1 WtCom= 1.00D+00 WtEn= 0.00D+00
 Coeff-Com: -0.177D-04 0.339D-04-0.459D-03 0.105D-03-0.123D-02 0.846D-04
 Coeff-Com:  0.250D-02 0.131D-01 0.164D-01 0.142D+00 0.278D+00 0.550D+00
 Coeff:     -0.177D-04 0.339D-04-0.459D-03 0.105D-03-0.123D-02 0.846D-04
 Coeff:      0.250D-02 0.131D-01 0.164D-01 0.142D+00 0.278D+00 0.550D+00
 Gap=     0.153 Goal=   None    Shift=    0.000
 RMSDP=1.16D-06 MaxDP=1.42D-04 DE=-3.02D-07 OVMax= 4.64D-05

 Cycle  13  Pass 1  IDiag  1:
 RMSU=  7.93D-07    CP:  1.00D+00  4.53D-01  5.87D-01  2.70D-01  7.73D-01
                    CP:  5.81D-01  7.80D-01  8.75D-01  6.35D-01  8.21D-01
                    CP:  9.24D-01  7.16D-01
 E= -1219.63272393982     Delta-E=       -0.000000029710 Rises=F Damp=F
 DIIS: error= 2.19D-06 at cycle  13 NSaved=  13.
 NSaved=13 IEnMin=13 EnMin= -1219.63272393982     IErMin=13 ErrMin= 2.19D-06
 ErrMax= 2.19D-06  0.00D+00 EMaxC= 1.00D-01 BMatC= 1.66D-08 BMatP= 5.14D-08
 IDIUse=1 WtCom= 1.00D+00 WtEn= 0.00D+00
 Coeff-Com: -0.266D-04 0.431D-04-0.214D-03 0.481D-04-0.278D-03 0.337D-03
 Coeff-Com: -0.280D-03-0.473D-03-0.550D-02 0.337D-01 0.530D-01 0.344D+00
 Coeff-Com:  0.575D+00
 Coeff:     -0.266D-04 0.431D-04-0.214D-03 0.481D-04-0.278D-03 0.337D-03
 Coeff:     -0.280D-03-0.473D-03-0.550D-02 0.337D-01 0.530D-01 0.344D+00
 Coeff:      0.575D+00
 Gap=     0.153 Goal=   None    Shift=    0.000
 RMSDP=6.57D-07 MaxDP=1.09D-04 DE=-2.97D-08 OVMax= 2.95D-05

 Cycle  14  Pass 1  IDiag  1:
 RMSU=  3.12D-07    CP:  1.00D+00  4.53D-01  5.87D-01  2.70D-01  7.73D-01
                    CP:  5.81D-01  7.80D-01  8.74D-01  6.34D-01  8.37D-01
                    CP:  9.58D-01  7.98D-01  1.01D+00
 E= -1219.63272395174     Delta-E=       -0.000000011921 Rises=F Damp=F
 DIIS: error= 7.63D-07 at cycle  14 NSaved=  14.
 NSaved=14 IEnMin=14 EnMin= -1219.63272395174     IErMin=14 ErrMin= 7.63D-07
 ErrMax= 7.63D-07  0.00D+00 EMaxC= 1.00D-01 BMatC= 2.71D-09 BMatP= 1.66D-08
 IDIUse=1 WtCom= 1.00D+00 WtEn= 0.00D+00
 Coeff-Com: -0.183D-04 0.271D-04-0.563D-04 0.457D-05 0.112D-03 0.297D-03
 Coeff-Com: -0.504D-03-0.283D-02-0.813D-02-0.762D-02-0.327D-01 0.121D+00
 Coeff-Com:  0.384D+00 0.546D+00
 Coeff:     -0.183D-04 0.271D-04-0.563D-04 0.457D-05 0.112D-03 0.297D-03
 Coeff:     -0.504D-03-0.283D-02-0.813D-02-0.762D-02-0.327D-01 0.121D+00
 Coeff:      0.384D+00 0.546D+00
 Gap=     0.153 Goal=   None    Shift=    0.000
 RMSDP=2.29D-07 MaxDP=2.25D-05 DE=-1.19D-08 OVMax= 1.35D-05

 Cycle  15  Pass 1  IDiag  1:
 RMSU=  1.14D-07    CP:  1.00D+00  4.53D-01  5.87D-01  2.70D-01  7.73D-01
                    CP:  5.82D-01  7.80D-01  8.74D-01  6.34D-01  8.40D-01
                    CP:  9.71D-01  8.28D-01  1.07D+00  7.86D-01
 E= -1219.63272395399     Delta-E=       -0.000000002245 Rises=F Damp=F
 DIIS: error= 1.85D-07 at cycle  15 NSaved=  15.
 NSaved=15 IEnMin=15 EnMin= -1219.63272395399     IErMin=15 ErrMin= 1.85D-07
 ErrMax= 1.85D-07  0.00D+00 EMaxC= 1.00D-01 BMatC= 1.63D-10 BMatP= 2.71D-09
 IDIUse=1 WtCom= 1.00D+00 WtEn= 0.00D+00
 Coeff-Com: -0.694D-05 0.107D-04-0.105D-04-0.145D-05 0.836D-04 0.117D-03
 Coeff-Com: -0.232D-03-0.145D-02-0.389D-02-0.787D-02-0.255D-01 0.249D-01
 Coeff-Com:  0.133D+00 0.298D+00 0.583D+00
 Coeff:     -0.694D-05 0.107D-04-0.105D-04-0.145D-05 0.836D-04 0.117D-03
 Coeff:     -0.232D-03-0.145D-02-0.389D-02-0.787D-02-0.255D-01 0.249D-01
 Coeff:      0.133D+00 0.298D+00 0.583D+00
 Gap=     0.153 Goal=   None    Shift=    0.000
 RMSDP=9.76D-08 MaxDP=1.29D-05 DE=-2.24D-09 OVMax= 4.19D-06

 Cycle  16  Pass 1  IDiag  1:
 RMSU=  3.82D-08    CP:  1.00D+00  4.53D-01  5.87D-01  2.70D-01  7.73D-01
                    CP:  5.82D-01  7.80D-01  8.74D-01  6.33D-01  8.41D-01
                    CP:  9.74D-01  8.40D-01  1.08D+00  8.73D-01  8.55D-01
 E= -1219.63272395406     Delta-E=       -0.000000000070 Rises=F Damp=F
 DIIS: error= 8.37D-08 at cycle  16 NSaved=  16.
 NSaved=16 IEnMin=16 EnMin= -1219.63272395406     IErMin=16 ErrMin= 8.37D-08
 ErrMax= 8.37D-08  0.00D+00 EMaxC= 1.00D-01 BMatC= 1.68D-11 BMatP= 1.63D-10
 IDIUse=1 WtCom= 1.00D+00 WtEn= 0.00D+00
 Coeff-Com: -0.144D-05 0.254D-05 0.957D-06-0.124D-05 0.297D-04 0.240D-04
 Coeff-Com: -0.620D-04-0.421D-03-0.112D-02-0.335D-02-0.101D-01-0.210D-02
 Coeff-Com:  0.225D-01 0.963D-01 0.343D+00 0.555D+00
 Coeff:     -0.144D-05 0.254D-05 0.957D-06-0.124D-05 0.297D-04 0.240D-04
 Coeff:     -0.620D-04-0.421D-03-0.112D-02-0.335D-02-0.101D-01-0.210D-02
 Coeff:      0.225D-01 0.963D-01 0.343D+00 0.555D+00
 Gap=     0.153 Goal=   None    Shift=    0.000
 RMSDP=2.27D-08 MaxDP=1.90D-06 DE=-7.00D-11 OVMax= 1.23D-06

 Cycle  17  Pass 1  IDiag  1:
 RMSU=  1.67D-08    CP:  1.00D+00  4.53D-01  5.87D-01  2.70D-01  7.73D-01
                    CP:  5.82D-01  7.80D-01  8.74D-01  6.33D-01  8.41D-01
                    CP:  9.75D-01  8.42D-01  1.09D+00  8.73D-01  8.74D-01
                    CP:  8.97D-01
 E= -1219.63272395406     Delta-E=        0.000000000000 Rises=F Damp=F
 DIIS: error= 2.09D-08 at cycle  17 NSaved=  17.
 NSaved=17 IEnMin=16 EnMin= -1219.63272395406     IErMin=17 ErrMin= 2.09D-08
 ErrMax= 2.09D-08  0.00D+00 EMaxC= 1.00D-01 BMatC= 1.83D-12 BMatP= 1.68D-11
 IDIUse=1 WtCom= 1.00D+00 WtEn= 0.00D+00
 Coeff-Com:  0.129D-06 0.147D-06 0.157D-05-0.436D-06 0.431D-05-0.104D-05
 Coeff-Com: -0.727D-05-0.405D-04-0.104D-03-0.617D-03-0.162D-02-0.319D-02
 Coeff-Com: -0.272D-02 0.131D-01 0.950D-01 0.267D+00 0.633D+00
 Coeff:      0.129D-06 0.147D-06 0.157D-05-0.436D-06 0.431D-05-0.104D-05
 Coeff:     -0.727D-05-0.405D-04-0.104D-03-0.617D-03-0.162D-02-0.319D-02
 Coeff:     -0.272D-02 0.131D-01 0.950D-01 0.267D+00 0.633D+00
 Gap=     0.153 Goal=   None    Shift=    0.000
 RMSDP=9.35D-09 MaxDP=1.05D-06 DE= 0.00D+00 OVMax= 3.94D-07

 Cycle  18  Pass 1  IDiag  1:
 RMSU=  5.26D-09    CP:  1.00D+00  4.53D-01  5.87D-01  2.70D-01  7.73D-01
                    CP:  5.82D-01  7.80D-01  8.74D-01  6.33D-01  8.41D-01
                    CP:  9.75D-01  8.41D-01  1.09D+00  8.81D-01  8.80D-01
                    CP:  9.58D-01  1.02D+00
 E= -1219.63272395412     Delta-E=       -0.000000000065 Rises=F Damp=F
 DIIS: error= 7.61D-09 at cycle  18 NSaved=  18.
 NSaved=18 IEnMin=18 EnMin= -1219.63272395412     IErMin=18 ErrMin= 7.61D-09
 ErrMax= 7.61D-09  0.00D+00 EMaxC= 1.00D-01 BMatC= 3.33D-13 BMatP= 1.83D-12
 IDIUse=1 WtCom= 1.00D+00 WtEn= 0.00D+00
 Coeff-Com:  0.333D-06-0.518D-06 0.103D-05-0.912D-07-0.181D-05-0.467D-05
 Coeff-Com:  0.550D-05 0.442D-04 0.122D-03 0.146D-03 0.698D-03-0.162D-02
 Coeff-Com: -0.504D-02-0.758D-02-0.283D-02 0.572D-01 0.336D+00 0.623D+00
 Coeff:      0.333D-06-0.518D-06 0.103D-05-0.912D-07-0.181D-05-0.467D-05
 Coeff:      0.550D-05 0.442D-04 0.122D-03 0.146D-03 0.698D-03-0.162D-02
 Coeff:     -0.504D-02-0.758D-02-0.283D-02 0.572D-01 0.336D+00 0.623D+00
 Gap=     0.153 Goal=   None    Shift=    0.000
 RMSDP=4.58D-09 MaxDP=1.18D-06 DE=-6.55D-11 OVMax= 2.40D-07

 Cycle  19  Pass 1  IDiag  1:
 RMSU=  2.23D-09    CP:  1.00D+00  4.53D-01  5.87D-01  2.70D-01  7.73D-01
                    CP:  5.82D-01  7.80D-01  8.74D-01  6.33D-01  8.41D-01
                    CP:  9.75D-01  8.41D-01  1.09D+00  8.83D-01  8.87D-01
                    CP:  9.80D-01  1.10D+00  9.81D-01
 E= -1219.63272395407     Delta-E=        0.000000000056 Rises=F Damp=F
 DIIS: error= 3.54D-09 at cycle  19 NSaved=  19.
 NSaved=19 IEnMin=18 EnMin= -1219.63272395412     IErMin=19 ErrMin= 3.54D-09
 ErrMax= 3.54D-09  0.00D+00 EMaxC= 1.00D-01 BMatC= 4.34D-14 BMatP= 3.33D-13
 IDIUse=1 WtCom= 1.00D+00 WtEn= 0.00D+00
 Coeff-Com:  0.158D-06-0.261D-06 0.429D-06-0.113D-07-0.121D-05-0.233D-05
 Coeff-Com:  0.177D-05 0.202D-04 0.682D-04 0.126D-03 0.544D-03-0.476D-03
 Coeff-Com: -0.226D-02-0.527D-02-0.115D-01-0.717D-03 0.888D-01 0.284D+00
 Coeff-Com:  0.647D+00
 Coeff:      0.158D-06-0.261D-06 0.429D-06-0.113D-07-0.121D-05-0.233D-05
 Coeff:      0.177D-05 0.202D-04 0.682D-04 0.126D-03 0.544D-03-0.476D-03
 Coeff:     -0.226D-02-0.527D-02-0.115D-01-0.717D-03 0.888D-01 0.284D+00
 Coeff:      0.647D+00
 Gap=     0.153 Goal=   None    Shift=    0.000
 RMSDP=1.79D-09 MaxDP=3.43D-07 DE= 5.59D-11 OVMax= 7.85D-08

 SCF Done:  E(RB3LYP) =  -1219.63272395     A.U. after   19 cycles
            NFock= 19  Conv=0.18D-08     -V/T= 2.0040
 KE= 1.214776233812D+03 PE=-7.520617941840D+03 EE= 2.751304768884D+03
 Leave Link  502 at Wed Dec 10 06:47:24 2025, MaxMem=  1610612736 cpu:           14982.9 elap:            1249.0
 (Enter /opt/g16/l601.exe)
 Copying SCF densities to generalized density rwf, IOpCl= 0 IROHF=0.

 **********************************************************************

            Population analysis using the SCF Density.

 **********************************************************************

 Orbital symmetries:
       Occupied  (A) (A) (A) (A) (A) (A) (A) (A) (A) (A) (A) (A)
                 (A) (A) (A) (A) (A) (A) (A) (A) (A) (A) (A) (A)
                 (A) (A) (A) (A) (A) (A) (A) (A) (A) (A) (A) (A)
                 (A) (A) (A) (A) (A) (A) (A) (A) (A) (A) (A) (A)
                 (A) (A) (A) (A) (A) (A) (A) (A) (A) (A) (A) (A)
                 (A) (A) (A) (A) (A) (A) (A) (A) (A) (A) (A) (A)
                 (A) (A) (A) (A) (A) (A) (A) (A) (A) (A) (A) (A)
                 (A) (A) (A) (A) (A) (A) (A)
       Virtual   (A) (A) (A) (A) (A) (A) (A) (A) (A) (A) (A) (A)
                 (A) (A) (A) (A) (A) (A) (A) (A) (A) (A) (A) (A)
                 (A) (A) (A) (A) (A) (A) (A) (A) (A) (A) (A) (A)
                 (A) (A) (A) (A) (A) (A) (A) (A) (A) (A) (A) (A)
                 (A) (A) (A) (A) (A) (A) (A) (A) (A) (A) (A) (A)
                 (A) (A) (A) (A) (A) (A) (A) (A) (A) (A) (A) (A)
                 (A) (A) (A) (A) (A) (A) (A) (A) (A) (A) (A) (A)
                 (A) (A) (A) (A) (A) (A) (A) (A) (A) (A) (A) (A)
                 (A) (A) (A) (A) (A) (A) (A) (A) (A) (A) (A) (A)
                 (A) (A) (A) (A) (A) (A) (A) (A) (A) (A) (A) (A)
                 (A) (A) (A) (A) (A) (A) (A) (A) (A) (A) (A) (A)
                 (A) (A) (A) (A) (A) (A) (A) (A) (A) (A) (A) (A)
                 (A) (A) (A) (A) (A) (A) (A) (A) (A) (A) (A) (A)
                 (A) (A) (A) (A) (A) (A) (A) (A) (A) (A) (A) (A)
                 (A) (A) (A) (A) (A) (A) (A) (A) (A) (A) (A) (A)
                 (A) (A) (A) (A) (A) (A) (A) (A) (A) (A) (A) (A)
                 (A) (A) (A) (A) (A) (A) (A) (A) (A) (A) (A) (A)
                 (A) (A) (A) (A) (A) (A) (A) (A) (A) (A) (A) (A)
                 (A) (A) (A) (A) (A) (A) (A) (A) (A) (A) (A) (A)
                 (A) (A) (A) (A) (A) (A) (A) (A) (A) (A) (A) (A)
                 (A) (A) (A) (A) (A) (A) (A) (A) (A) (A) (A) (A)
                 (A) (A) (A) (A) (A) (A) (A) (A) (A) (A) (A) (A)
                 (A) (A) (A) (A) (A) (A) (A) (A) (A) (A) (A) (A)
                 (A) (A) (A) (A) (A) (A) (A) (A) (A) (A) (A) (A)
                 (A) (A) (A) (A) (A) (A) (A) (A) (A) (A) (A) (A)
                 (A) (A) (A) (A) (A) (A) (A) (A) (A) (A) (A) (A)
                 (A) (A) (A) (A) (A) (A) (A) (A) (A) (A) (A) (A)
                 (A) (A) (A) (A) (A) (A) (A) (A) (A) (A) (A) (A)
                 (A) (A) (A) (A) (A) (A) (A) (A) (A) (A) (A) (A)
                 (A) (A) (A) (A) (A) (A) (A) (A) (A) (A) (A) (A)
                 (A) (A) (A) (A) (A) (A) (A) (A) (A) (A) (A) (A)
                 (A) (A) (A) (A) (A) (A) (A) (A) (A) (A) (A) (A)
                 (A) (A) (A) (A) (A) (A) (A) (A) (A) (A) (A) (A)
                 (A) (A) (A) (A) (A) (A) (A) (A) (A) (A) (A) (A)
                 (A) (A) (A) (A) (A) (A) (A) (A) (A) (A) (A) (A)
                 (A) (A) (A) (A) (A) (A) (A) (A) (A) (A) (A) (A)
                 (A) (A) (A) (A) (A) (A) (A) (A) (A) (A) (A) (A)
                 (A) (A) (A) (A) (A) (A) (A) (A) (A) (A) (A) (A)
                 (A) (A) (A) (A) (A) (A) (A) (A) (A) (A) (A) (A)
                 (A) (A) (A) (A) (A) (A) (A) (A) (A) (A) (A) (A)
                 (A) (A) (A) (A) (A) (A) (A) (A) (A) (A) (A) (A)
                 (A) (A) (A) (A) (A) (A) (A) (A) (A) (A) (A) (A)
                 (A) (A) (A) (A) (A) (A) (A) (A) (A) (A) (A) (A)
                 (A) (A) (A) (A) (A) (A) (A) (A) (A) (A) (A) (A)
                 (A) (A) (A) (A) (A) (A) (A) (A) (A) (A) (A) (A)
                 (A) (A) (A) (A) (A) (A) (A) (A) (A) (A) (A) (A)
                 (A) (A) (A) (A) (A) (A) (A) (A) (A) (A) (A) (A)
                 (A) (A) (A) (A) (A) (A) (A) (A) (A) (A) (A) (A)
                 (A) (A) (A) (A) (A) (A) (A) (A) (A) (A) (A) (A)
                 (A) (A) (A) (A) (A) (A) (A) (A) (A) (A) (A) (A)
                 (A) (A) (A) (A) (A) (A) (A) (A) (A) (A) (A) (A)
                 (A) (A) (A) (A) (A) (A) (A) (A) (A) (A) (A) (A)
                 (A) (A) (A) (A) (A) (A) (A) (A) (A) (A) (A) (A)
                 (A) (A) (A) (A) (A) (A) (A) (A) (A) (A) (A) (A)
                 (A) (A) (A) (A) (A) (A) (A) (A) (A) (A) (A) (A)
                 (A) (A) (A) (A) (A) (A) (A) (A) (A) (A) (A) (A)
                 (A) (A) (A) (A) (A) (A) (A) (A) (A) (A) (A) (A)
                 (A) (A) (A) (A) (A) (A) (A) (A) (A) (A) (A) (A)
                 (A) (A) (A) (A) (A) (A) (A) (A) (A) (A) (A) (A)
                 (A) (A) (A) (A) (A) (A) (A) (A) (A) (A) (A) (A)
                 (A) (A) (A) (A) (A) (A) (A) (A) (A) (A) (A) (A)
                 (A) (A) (A) (A) (A) (A) (A) (A) (A) (A) (A) (A)
                 (A) (A) (A) (A) (A) (A) (A) (A) (A) (A) (A) (A)
                 (A) (A) (A) (A) (A) (A) (A) (A) (A) (A) (A) (A)
                 (A) (A) (A) (A) (A) (A) (A) (A) (A) (A) (A) (A)
                 (A) (A) (A) (A) (A) (A) (A) (A) (A) (A) (A) (A)
                 (A) (A) (A) (A) (A) (A) (A) (A) (A) (A) (A) (A)
                 (A) (A) (A) (A) (A) (A) (A) (A)
 The electronic state is 1-A.
 Alpha  occ. eigenvalues --  -19.17617 -19.17607 -19.14099 -19.12173 -19.12085
 Alpha  occ. eigenvalues --  -19.11951 -14.51900 -14.38129 -10.32529 -10.32436
 Alpha  occ. eigenvalues --  -10.25448 -10.25273 -10.23574 -10.22002 -10.21882
 Alpha  occ. eigenvalues --  -10.21111 -10.21106 -10.20795 -10.19924 -10.19662
 Alpha  occ. eigenvalues --  -10.19544 -10.19195 -10.19044 -10.17268 -10.17226
 Alpha  occ. eigenvalues --   -1.20384  -1.09639  -1.09481  -1.03304  -1.01076
 Alpha  occ. eigenvalues --   -1.00823  -0.96929  -0.89039  -0.83633  -0.82751
 Alpha  occ. eigenvalues --   -0.80298  -0.77660  -0.74609  -0.73375  -0.72383
 Alpha  occ. eigenvalues --   -0.71023  -0.70205  -0.67131  -0.62415  -0.61965
 Alpha  occ. eigenvalues --   -0.61704  -0.60543  -0.57464  -0.55179  -0.55013
 Alpha  occ. eigenvalues --   -0.52744  -0.52157  -0.51298  -0.50734  -0.50281
 Alpha  occ. eigenvalues --   -0.49445  -0.49036  -0.48933  -0.48742  -0.48450
 Alpha  occ. eigenvalues --   -0.46801  -0.46354  -0.46106  -0.44624  -0.44090
 Alpha  occ. eigenvalues --   -0.43500  -0.43075  -0.42624  -0.42261  -0.41496
 Alpha  occ. eigenvalues --   -0.39869  -0.39595  -0.39384  -0.38936  -0.38096
 Alpha  occ. eigenvalues --   -0.37644  -0.36806  -0.36268  -0.35683  -0.35315
 Alpha  occ. eigenvalues --   -0.32319  -0.30583  -0.30467  -0.29309  -0.28846
 Alpha  occ. eigenvalues --   -0.28357  -0.27917  -0.26897  -0.26276  -0.24609
 Alpha  occ. eigenvalues --   -0.23236
 Alpha virt. eigenvalues --   -0.07918  -0.06986  -0.05200  -0.03251  -0.02432
 Alpha virt. eigenvalues --   -0.00860  -0.00511  -0.00211  -0.00032   0.01059
 Alpha virt. eigenvalues --    0.01106   0.01679   0.02072   0.02323   0.02808
 Alpha virt. eigenvalues --    0.03335   0.03522   0.04020   0.04133   0.04230
 Alpha virt. eigenvalues --    0.04511   0.04666   0.05194   0.05305   0.06115
 Alpha virt. eigenvalues --    0.06206   0.06693   0.06849   0.07383   0.07897
 Alpha virt. eigenvalues --    0.08264   0.08968   0.09402   0.09532   0.09788
 Alpha virt. eigenvalues --    0.09918   0.10221   0.10465   0.10670   0.10815
 Alpha virt. eigenvalues --    0.11041   0.11139   0.11510   0.11590   0.11928
 Alpha virt. eigenvalues --    0.12294   0.12408   0.12562   0.12904   0.13066
 Alpha virt. eigenvalues --    0.13188   0.13488   0.13588   0.13980   0.14175
 Alpha virt. eigenvalues --    0.14387   0.14492   0.14738   0.15026   0.15130
 Alpha virt. eigenvalues --    0.15498   0.15750   0.15898   0.16211   0.16750
 Alpha virt. eigenvalues --    0.16880   0.16946   0.17262   0.17575   0.17789
 Alpha virt. eigenvalues --    0.17931   0.17994   0.18781   0.18920   0.19187
 Alpha virt. eigenvalues --    0.19531   0.19712   0.20081   0.20136   0.20319
 Alpha virt. eigenvalues --    0.20715   0.21343   0.21510   0.21586   0.21821
[...]
 0473,0.00000085,-0.00000219,-0.00000251,0.00000369,0.00014378,0.000130
 69,0.00003927,0.00000750,-0.00001763,-0.00001008,-0.00001130,-0.000004
 48,0.00000635,-0.00005628,0.00000045,-0.00000388,-0.00068390,-0.001626
 01,0.00136333,0.00117931,0.00143308,-0.00038371,-0.00003209,-0.0000215
 4,-0.00011961,0.00000874,-0.00002061,0.00001993,0.00002957,0.00000781,
 0.00000032,0.00006692,0.00000449,0.00006115,-0.12653709,0.01285778,-0.
 17406768,-0.01747944,0.00171094,-0.01664341,0.00802086,-0.00195082,0.0
 1057587,0.14229690,-0.01430833,0.18700709,0.00180924,0.00796550,-0.000
 06538,-0.00725944,0.00234735,-0.02330074,-0.09731503,0.01706424,-0.001
 55031,0.00977745,-0.01117272,0.00701454,0.00390383,0.00609919,0.003827
 98,-0.00201760,0.00045551,0.00075583,0.00054583,0.00030841,-0.00098273
 ,-0.00255474,-0.00065865,0.00136128,0.00068516,0.00013260,0.00117129,-
 0.00081064,-0.00076874,0.00009360,-0.00216910,-0.00259004,0.00069224,0
 .00043311,-0.00023996,-0.00070975,-0.00040467,-0.00023036,0.00021720,-
 0.00005540,-0.00014140,-0.00010239,-0.00032843,0.00033239,-0.00022967,
 -0.00328987,0.00140723,-0.00063848,-0.00043995,-0.00068995,0.00005182,
 0.00152990,0.00046943,-0.00028163,0.00082561,0.00049070,0.00035899,-0.
 00059066,-0.00027526,-0.00045979,-0.00037704,-0.00044778,-0.00008370,-
 0.00011286,-0.00054734,0.00034134,0.00005192,0.00001914,-0.00001015,-0
 .00001293,0.00003917,0.00000065,-0.00002449,0.00002996,-0.00004364,0.0
 0024671,0.00010101,0.00008266,-0.00001806,-0.00002498,-0.00000092,-0.0
 0002646,-0.00001461,-0.00002830,-0.00002657,-0.00001732,0.00001502,-0.
 00001751,-0.00042126,0.00006395,-0.00004480,0.00001440,0.00000083,0.00
 002038,0.00002711,0.00000027,0.00000302,-0.00001300,0.00000880,0.00003
 109,0.00000099,-0.00000145,0.00003099,-0.00001632,0.00003553,0.0000258
 7,0.00003426,0.00011276,0.00001595,-0.00001526,-0.00000772,0.00000359,
 -0.00001693,0.00003897,-0.00000278,-0.00004109,0.00003891,0.29852902,0
 .00757435,-0.00015160,0.00184372,0.00164986,-0.00042770,0.02355102,0.0
 1505873,-0.08863498,0.00067028,-0.01260298,0.01206052,-0.00811594,0.00
 538502,0.00091106,-0.00683496,0.00213352,-0.00325982,-0.00069263,0.000
 42925,0.00033451,0.00115637,-0.00002258,-0.00476702,-0.00257184,-0.000
 04340,0.00053177,-0.00141789,-0.00039030,-0.00086159,0.00011343,-0.002
 53046,0.00021405,0.00169400,-0.00209460,-0.00050312,-0.00190413,0.0003
 8250,-0.00024036,-0.00022624,0.00285066,0.00038556,0.00024869,-0.00069
 281,0.00002765,-0.00008315,0.00074628,0.00312899,-0.00168587,-0.000791
 31,-0.00507756,-0.00069268,-0.00097733,-0.00138382,0.00129770,0.005254
 02,-0.00387021,0.00095033,-0.00327092,0.00336303,-0.00229586,-0.000502
 18,0.00305526,0.00036927,-0.00005640,0.00109229,-0.00034952,0.00000220
 ,-0.00012442,0.00002217,-0.00014985,-0.00021099,-0.00010131,-0.0000599
 7,0.00001688,0.00009792,-0.00069096,-0.00060646,0.00008423,-0.00004371
 ,0.00015777,-0.00001601,0.00008027,-0.00012878,-0.00004645,0.00010393,
 -0.00008486,-0.00000308,-0.00182162,-0.00131627,-0.00022703,0.00002924
 ,-0.00006830,0.00012031,-0.00011192,0.00018842,0.00005574,-0.00007671,
 -0.00003705,-0.00004987,-0.00010247,0.00003530,0.00000589,-0.00009354,
 -0.00001018,-0.00000387,-0.00022467,0.00013682,0.00030713,-0.00003803,
 0.00017140,-0.00005623,0.00003250,-0.00002572,0.00007820,-0.00013089,0
 .00005422,-0.00012893,-0.11374001,0.85279925,-0.00094800,-0.00128324,0
 .00591131,-0.01274655,0.01853653,-0.00502179,0.00329317,-0.00331882,-0
 .10632703,-0.00635728,-0.00645436,-0.04814716,0.00422117,-0.00651521,0
 .00362101,0.00037493,-0.00010726,0.00090905,0.00068670,-0.00057991,0.0
 0106663,0.00019790,0.00269393,0.00090476,-0.00035437,0.00048019,-0.000
 07255,0.00035934,0.00033791,-0.00002563,-0.00119260,0.00101883,0.00175
 653,-0.00037574,-0.00017191,-0.00164105,-0.00067519,0.00027075,-0.0026
 4089,0.00010453,-0.00021423,-0.00012533,0.00005112,-0.00017797,-0.0002
 6923,0.00303431,-0.00385730,0.00321777,-0.00303991,0.00134276,-0.00419
 415,-0.00159881,0.00082599,-0.00021222,0.00348599,-0.00043139,0.001286
 65,-0.00230061,0.00086978,-0.00327724,-0.00083514,0.00032780,0.0001128
 1,0.00018525,0.00010571,0.00024137,-0.00006417,0.00002491,-0.00003866,
 0.00009227,0.00000100,0.00005203,0.00009747,-0.00003528,-0.00012559,0.
 00014643,-0.00005639,0.00029735,-0.00004367,0.00001315,-0.00002199,-0.
 00004118,-0.00008846,-0.00007783,0.00001272,-0.00004209,-0.00001424,-0
 .00027698,-0.00000737,-0.00078727,-0.00006615,0.00009176,0.00012808,-0
 .00010930,0.00016303,0.00027874,0.00002815,-0.00000149,0.00013768,-0.0
 0000158,-0.00006120,-0.00003653,0.00000471,0.00009085,0.00001119,-0.00
 000527,0.00018658,0.00031905,0.00003302,0.00001959,-0.00005543,0.00003
 686,0.00002334,0.00011459,-0.00008211,-0.00004585,0.00003603,0.0971764
 7,0.11237224,0.62462512,-0.00132305,-0.00140024,-0.00079031,0.00288812
 ,-0.00033844,-0.00078214,0.00967237,0.02287323,-0.01538137,-0.00105696
 ,0.00356849,0.00136465,0.00006391,-0.00144565,-0.00025153,-0.00010366,
 0.00045460,0.00003728,-0.00031367,-0.00016761,-0.00019950,0.00096816,-
 0.00093927,-0.00096002,-0.00008517,-0.00001223,-0.00023679,0.00023541,
 0.00006283,-0.00000430,0.00065539,0.00011071,-0.00060524,-0.00017989,0
 .00003922,0.00021418,0.00000317,0.00011041,0.00002346,0.00024260,-0.00
 006422,0.00009281,0.00010150,-0.00007971,0.00005698,0.00061571,0.00006
 972,-0.00003784,-0.00038365,0.00034263,-0.00002395,-0.00038389,-0.0002
 4048,0.00017218,0.00065993,-0.00080870,-0.00004823,-0.00036694,0.00078
 081,-0.00020880,0.00003693,0.00069686,0.00011194,0.00005102,0.00018368
 ,-0.00011442,-0.00002835,-0.00000627,0.00000480,0.00002478,-0.00000931
 ,0.00000165,0.00001583,-0.00001394,0.00001511,-0.00022794,-0.00014664,
 -0.00002972,0.00000019,0.00003338,-0.00000175,0.00002302,-0.00001341,0
 .00000649,0.00002516,-0.00000741,-0.00000673,-0.00017635,0.00005117,0.
 00001435,0.00002424,-0.00002149,0.00000820,-0.00000800,-0.00002200,-0.
 00001329,-0.00000993,0.00000200,-0.00001244,-0.00001362,0.00000405,0.0
 0000545,-0.00001493,0.00000331,-0.00001799,-0.00000504,-0.00000706,-0.
 00002154,-0.00000677,0.00001712,0.00000128,0.00000189,0.00000049,-0.00
 000707,-0.00000992,0.00001049,-0.00002821,-0.11371548,0.10766446,-0.04
 090667,0.07398776,0.00071108,-0.00039315,0.00049362,-0.00119626,0.0034
 9424,0.00336165,0.01989344,-0.02737601,0.02833576,0.00293593,-0.004252
 53,-0.00707206,0.00006076,0.00030123,0.00200679,-0.00063124,0.00031096
 ,-0.00009825,0.00012090,-0.00008330,0.00053130,-0.00151844,0.00201094,
 0.00135920,0.00004077,0.00000581,0.00030535,-0.00013699,0.00023063,0.0
 0003152,-0.00019989,-0.00083925,-0.00088276,0.00145242,0.00023917,0.00
 090532,-0.00046496,0.00068684,-0.00009535,-0.00200389,-0.00030930,-0.0
 0025112,0.00037757,-0.00020676,0.00018937,0.00035181,-0.00289963,0.001
 66485,-0.00124204,0.00333528,-0.00010300,0.00012552,0.00101949,-0.0008
 2657,-0.00272685,0.00229521,-0.00046979,0.00157501,-0.00198497,0.00145
 196,0.00014523,-0.00173885,-0.00025403,0.00006311,-0.00063790,0.000212
 42,-0.00001172,0.00008280,-0.00001787,0.00011144,0.00013085,0.00007586
 ,0.00005400,-0.00001584,-0.00007692,0.00044674,0.00037212,-0.00004221,
 0.00002112,-0.00009650,0.00001171,-0.00004327,0.00007119,0.00001532,-0
 .00006100,0.00004149,0.00001518,0.00121720,0.00096624,-0.00000031,-0.0
 0003180,0.00006978,-0.00005322,0.00005851,-0.00009469,-0.00004951,0.00
 004231,0.00002085,0.00005330,0.00006833,-0.00003212,-0.00001071,0.0000
 4128,0.00001664,-0.00000573,0.00015472,-0.00004327,-0.00014613,0.00003
 164,-0.00010827,0.00002780,-0.00001459,0.00002034,-0.00003066,0.000068
 90,-0.00004356,0.00009284,0.10911533,-0.44144893,0.08474493,-0.1422774
 9,0.58058437,-0.00206083,0.00107063,-0.00159999,0.00274597,-0.00294270
 ,-0.00649323,-0.02053508,0.04318624,-0.00931569,0.00071866,0.00278426,
 -0.00703710,-0.00086506,0.00059703,0.00145199,-0.00125742,0.00105757,-
 0.00041398,-0.00036576,-0.00002658,-0.00083425,-0.00113454,0.00261588,
 -0.00362246,0.00017831,-0.00001382,-0.00013239,-0.00006247,0.00015082,
 -0.00011506,0.00107002,-0.00056637,-0.00027950,-0.00015528,0.00007653,
 0.00026633,0.00023776,-0.00020372,0.00068407,0.00043641,0.00012747,0.0
 0012141,-0.00009458,0.00007114,0.00004206,-0.00064700,0.00164960,-0.00
 130871,0.00100803,-0.00134465,0.00105581,0.00020523,-0.00053556,0.0003
 7344,-0.00075321,-0.00038328,-0.00035435,0.00050054,0.00003089,0.00074
 692,0.00028567,0.00027316,0.00003235,-0.00005973,0.00022055,-0.0001898
 0,0.00001997,-0.00003319,0.00001880,-0.00005802,-0.00004090,-0.0000413
 8,-0.00004749,0.00001586,0.00006967,-0.00015289,-0.00006766,-0.0000958
 0,0.00000980,0.00001918,0.00000375,0.00002594,0.00001132,0.00002255,0.
 00001194,0.00000636,0.00000239,-0.00020099,-0.00019910,0.00022594,0.00
 003704,-0.00004944,-0.00003413,0.00001405,-0.00001714,-0.00007236,-0.0
 0001489,-0.00000270,-0.00005729,-0.00001968,0.00002713,0.00001435,-0.0
 0001370,-0.00003237,-0.00000490,-0.00003170,-0.00004347,-0.00004096,-0
 .00002197,0.00002860,0.00000933,-0.00000948,-0.00001344,-0.00003388,0.
 00001216,0.00001943,-0.00003308,-0.04299227,0.08785975,-0.15206189,0.0
 4915567,-0.08283002,0.14336302,-0.00055526,-0.00098175,0.00020440,-0.0
 0009049,0.00070283,0.00264679,0.01920442,-0.01087346,-0.01356021,-0.00
 166932,0.00311276,-0.00302509,0.00050483,-0.00171744,-0.00059547,0.000
 24163,0.00003031,0.00005140,-0.00006594,-0.00003438,0.00010961,0.00024
 644,0.00000807,0.00026245,-0.00023462,0.00001058,-0.00040323,0.0001145
 0,0.00015105,-0.00006650,-0.00348818,0.00348316,0.00027676,-0.00014401
 ,-0.00008591,-0.00056645,-0.00031097,0.00057291,-0.00132411,0.00012463
 ,0.00042427,-0.00013892,-0.00014601,-0.00089830,0.00034144,0.00121913,
 -0.00065177,0.00034067,-0.00244141,-0.00052349,-0.00077913,-0.00091783
 ,-0.00019422,0.00031459,-0.00254134,0.00025712,-0.00024223,0.00178532,
 -0.00082549,0.00083754,0.00066652,-0.00019382,-0.00004726,0.00007326,0
 .00030677,-0.00017355,-0.00003781,-0.00001505,0.00000711,0.00001551,-0
 .00002908,0.00000943,0.00002556,-0.00002431,0.00001199,-0.00013311,0.0
 0002768,-0.00008271,0.00003351,-0.00000235,0.00000953,0.00000609,0.000
 04406,0.00004138,0.00001373,0.00003631,-0.00001507,0.00017528,0.000453
 00,-0.00029635,0.00004412,-0.00000524,0.00000928,-0.00005819,0.0001381
 6,0.00007603,0.00000719,0.00000039,0.00000412,-0.00006784,-0.00000388,
 -0.00000332,-0.00005708,0.00001970,-0.00002311,-0.00010787,0.00005060,
 0.00007731,-0.00003825,0.00006091,-0.00001483,-0.00000240,0.00001059,-
 0.00003767,0.00000337,0.00003115,-0.00000752,-0.08664004,-0.01374775,-
 0.04643019,0.02783789,0.01553010,0.01580441,0.05161042,-0.00013679,0.0
 0060592,-0.00182215,0.00217658,-0.00344049,-0.00032326,-0.00517516,0.0
 0323348,-0.02326562,0.00093400,0.00207833,-0.00013847,-0.00029067,0.00
 084992,-0.00007070,-0.00047420,0.00059454,0.00030129,-0.00014839,0.000
 02296,-0.00026496,-0.00115146,0.00006693,0.00128447,-0.00019420,-0.000
 14714,-0.00005547,-0.00028772,-0.00000391,0.00001580,0.00362445,-0.001
 53073,-0.00082191,0.00119119,0.00023134,0.00108557,-0.00009205,0.00007
 343,0.00145618,-0.00160440,-0.00012333,-0.00012943,0.00055028,-0.00002
 848,0.00024387,-0.00086151,-0.00098512,0.00029092,0.00074920,0.0015020
 7,0.00041706,0.00087752,0.00066888,-0.00048931,-0.00362106,0.00212764,
 -0.00057490,0.00214748,-0.00330279,0.00279420,0.00043151,-0.00183422,-
 0.00034634,-0.00001009,-0.00056392,0.00016957,0.00001787,0.00005333,-0
 .00001221,0.00003917,0.00009459,0.00002820,0.00000532,0.00000864,-0.00
 003390,0.00038748,0.00033986,-0.00006374,0.00002521,-0.00008615,0.0000
 0899,-0.00004643,0.00007435,0.00003449,-0.00005966,0.00005342,0.000004
 06,0.00108028,0.00080716,0.00018804,-0.00000434,0.00002660,-0.00007751
 ,0.00009578,-0.00017906,-0.00009068,0.00001913,0.00002064,-0.00000394,
 0.00006390,-0.00000196,-0.00000005,0.00005617,-0.00001833,-0.00000580,
 0.00011228,-0.00011739,-0.00024022,0.00002008,-0.00010313,0.00004690,-
 0.00002349,0.00000838,-0.00005727,0.00008099,-0.00001264,0.00006181,-0
 .01563383,-0.32080208,-0.19783739,0.01093167,-0.11499918,-0.05303570,0
 .00377039,0.43429893,0.00067616,0.00119078,0.00023881,0.00188341,-0.00
 389510,-0.00075218,-0.01077929,-0.03790174,-0.04198724,-0.00531627,0.0
 0473073,-0.00193566,0.00111410,0.00143902,-0.00284762,0.00048577,-0.00
 097447,-0.00074483,-0.00020662,0.00013278,-0.00044416,-0.00104256,-0.0
 0085916,0.00072775,-0.00008826,0.00015106,-0.00083546,-0.00032029,-0.0
 0011307,-0.00001004,-0.00129858,-0.00067038,-0.00101634,0.00045055,0.0
 0032260,0.00086126,-0.00000795,0.00022976,0.00101576,-0.00043097,0.000
 00885,0.00001733,-0.00015830,0.00002285,0.00019172,-0.00209458,0.00194
 888,-0.00168868,0.00284348,0.00010226,0.00234377,0.00119154,-0.0001884
 8,-0.00007162,-0.00196425,0.00050484,-0.00089866,0.00129947,0.00014850
 ,0.00155732,0.00036785,-0.00024586,-0.00000846,-0.00010205,-0.00029678
 ,-0.00006865,0.00003521,0.00000793,0.00001951,-0.00001884,0.00003897,0
 .00000521,-0.00004917,0.00000337,0.00004929,-0.00004177,0.00008230,-0.
 00020883,0.00002784,-0.00002312,0.00001782,0.00003023,0.00007009,0.000
 04526,-0.00001514,0.00002740,0.00001988,0.00035877,0.00012709,0.000413
 07,0.00002538,-0.00003894,-0.00007953,0.00006660,-0.00007663,-0.000172
 52,-0.00000710,0.00000634,-0.00006657,0.00000462,0.00002414,0.00002184
 ,-0.00000396,-0.00004950,-0.00000073,0.00003752,-0.00009162,-0.0001814
 7,-0.00001331,-0.00002477,0.00002837,-0.00002368,-0.00000855,-0.000064
 68,0.00005886,0.00000965,0.00000129,-0.04196033,-0.20422548,-0.3202377
 8,0.00898502,-0.03287646,0.03573012,0.05073070,0.26836576,0.33242667,-
 0.00163552,0.00286396,0.00188816,0.00776076,-0.00169264,0.01552150,0.0
 0022782,-0.00033846,-0.00063624,-0.00017221,0.00019225,0.00013289,-0.0
 0008625,0.00017286,-0.00019000,0.00038524,-0.00037922,0.00065831,-0.00
 001147,-0.00006422,-0.00011432,-0.00004438,0.00000616,0.00008902,-0.00
 002667,0.00003383,-0.00005301,-0.00018645,0.00007988,0.00025761,-0.104
 00891,0.00979119,-0.11474469,0.00225644,0.00350362,0.00298941,-0.02123
 895,0.00293953,-0.02345096,-0.00092992,-0.00160181,0.00006824,-0.00271
 665,-0.00439872,0.00086278,-0.00161426,0.00149460,-0.00143017,0.001484
 12,0.00027036,0.00060247,0.00032283,0.00036848,-0.00007145,0.00110900,
 -0.00177180,0.00143044,-0.00035786,0.00031355,-0.00062584,-0.00024529,
 0.00048679,-0.00003560,0.00005034,-0.00006651,0.00008185,0.00003799,0.
 00002365,-0.00002293,-0.00001587,-0.00000174,0.00000002,-0.00001563,-0
 .00002965,0.00002981,0.00004663,-0.00003529,0.00001199,-0.00001087,0.0
 0001357,-0.00000550,0.00000293,-0.00002522,-0.00001759,0.00000320,0.00
 000248,0.00002798,0.00085282,0.00099288,-0.00045617,0.00005945,-0.0000
 1159,-0.00012192,-0.00053023,0.00106698,0.00037577,0.00014341,0.000025
 87,-0.00001781,-0.00028289,0.00000771,-0.00002768,-0.00027470,0.000046
 06,0.00006863,0.00025434,-0.00026215,-0.00056740,0.00008367,-0.0002357
 7,0.00005900,0.00003320,0.00002244,0.00005023,0.00000014,-0.00001207,0
 .00004359,-0.00021414,0.00563057,0.00482891,0.00027823,-0.00225474,-0.
 00092358,-0.00420540,0.00042754,-0.00472980,0.12343196,0.00258323,-0.0
 0260610,-0.00226557,-0.00810555,0.00201467,-0.01894654,-0.00029861,0.0
 0067928,0.00017736,0.00005377,-0.00021409,-0.00033002,0.00023756,-0.00
 024013,0.00022317,-0.00037837,0.00079398,-0.00064544,-0.00013210,-0.00
 007123,0.00009546,0.00002991,0.00000434,-0.00005719,0.00001800,-0.0000
 3887,0.00005011,0.00010202,-0.00018616,-0.00024911,0.01138295,-0.05110
 131,0.02780227,0.01568982,-0.01017564,0.02843923,-0.00345442,0.0024818
 8,-0.00920053,-0.00377959,-0.00424800,0.00147708,-0.00182487,-0.001970
 11,0.00098346,-0.00251218,0.00052605,-0.00111067,0.00062606,-0.0006981
 3,0.00075975,0.00077997,0.00012749,0.00003613,0.00238416,-0.00068004,0
 .00150958,-0.00069209,0.00088748,-0.00076556,0.00017591,0.00009966,-0.
 00023998,-0.00003737,-0.00002469,0.00007005,0.00002846,0.00000474,-0.0
 0000107,-0.00000545,-0.00000590,-0.00003670,-0.00003216,0.00000638,0.0
 0001698,0.00002101,0.00004691,0.00006121,0.00001161,0.00003221,0.00000
 849,-0.00003580,-0.00002363,-0.00001295,-0.00000946,-0.00001247,0.0000
 0592,0.00111903,0.00117305,-0.00004241,-0.00000812,0.00009594,0.000051
 11,-0.00025362,0.00049229,0.00048390,0.00003607,0.00003827,-0.00006998
 ,-0.00024233,0.00001427,0.00001254,-0.00011783,0.00000907,-0.00000285,
 0.00112752,-0.00065359,-0.00100929,0.00017242,-0.00043819,0.00018618,-
 0.00000200,0.00013251,-0.00002013,0.00008966,-0.00015007,-0.00000197,0
 .00126288,-0.00462290,-0.00325444,0.00001023,0.00129755,0.00048241,0.0
 0157485,0.00043873,0.00286418,-0.01759521,0.06676447,0.00268969,-0.003
 13638,-0.00174966,-0.00808256,-0.00049488,-0.02437716,-0.00082486,0.00
 080783,0.00071388,0.00004862,-0.00000950,-0.00047610,0.00016178,-0.000
 11988,0.00024584,-0.00060333,0.00074311,-0.00076091,-0.00006879,0.0000
 3997,0.00013368,-0.00002342,0.00000197,0.00004129,0.00002586,-0.000033
 39,0.00001780,0.00009855,-0.00020720,-0.00023152,-0.10931437,0.0235723
 4,-0.26261378,-0.00227165,0.00384861,-0.00251099,0.00158508,-0.0008235
 7,0.00859390,-0.00015381,0.00043197,-0.00023325,0.00118373,0.00127705,
 -0.00032789,0.00022061,0.00036570,0.00116755,0.00064268,0.00069056,-0.
 00071711,0.00032177,0.00003515,-0.00028784,-0.00111036,0.00076156,0.00
 068077,0.00023252,-0.00098152,0.00017441,-0.00002034,-0.00043526,-0.00
 017853,-0.00000895,-0.00015106,0.00010729,0.00001112,0.00000127,-0.000
 00661,-0.00002067,0.00002043,0.00000603,0.00001254,0.00003973,-0.00001
 933,0.00012430,0.00003541,0.00002792,-0.00000602,-0.00002690,-0.000007
 22,-0.00002747,-0.00000164,0.00001085,-0.00001144,0.00001749,-0.000002
 19,0.00056167,-0.00031126,0.00055890,-0.00006063,0.00004631,0.00002160
 ,0.00027715,-0.00041311,-0.00032424,-0.00004080,-0.00001189,0.00000296
 ,0.00017653,0.00000428,-0.00002470,0.00009626,-0.00003300,-0.00001313,
 -0.00009071,-0.00007818,-0.00010244,0.00002599,-0.00005220,-0.00000016
 ,0.00000056,-0.00002224,-0.00000753,0.00000634,0.00003557,0.00000140,-
 0.00001157,-0.00116942,0.00038371,0.00041834,0.00030665,-0.00006211,-0
 .00433400,0.00296371,-0.00141033,0.11816406,-0.02753418,0.28355492\\0.
 00000163,-0.00000182,-0.00000445,-0.00000610,-0.00000067,0.00000275,0.
 00000132,0.00000068,0.00000027,-0.00000076,0.00000201,-0.00000089,0.00
 000049,-0.00000216,0.00000257,-0.00000186,0.00000194,0.00000174,0.0000
 0053,-0.00000169,-0.00000021,0.00000029,-0.00000146,-0.00000037,0.0000
 0017,-0.00000023,-0.00000056,-0.00000114,-0.00000059,-0.00000035,0.000
 00179,0.00000016,-0.00000195,-0.00000321,0.00000322,0.00000110,0.00000
 131,0.00000070,-0.00000117,0.00000861,0.00000197,0.00000361,-0.0000004
 8,-0.00000800,0.00000160,0.00000079,-0.00000429,0.00000180,-0.00000050
 ,0.00000627,-0.00000085,0.00000186,0.00000191,0.00000169,0.00000497,-0
 .00000536,-0.00000111,-0.00000561,0.00000216,-0.00000045,-0.00000138,-
 0.00000006,-0.00000050,0.00000083,-0.00000140,0.00000126,-0.00000066,0
 .00000084,0.00000071,-0.00000009,-0.00000001,0.00000069,0.00000048,0.0
 0000066,0.00000096,0.00000094,-0.00000029,-0.00000047,-0.00000008,0.00
 000062,-0.00000119,0.00000082,0.00000010,-0.00000031,0.00000042,-0.000
 00009,-0.00000144,-0.00000079,-0.00000169,-0.00000123,-0.00000073,0.00
 000154,0.00000090,-0.00000003,-0.00000122,-0.00000630,0.00000072,0.000
 00347,0.00000124,-0.00000234,0.00000117,0.00000380,-0.00000004,0.00000
 147,0.00000170,-0.00000459,-0.00000125,-0.00000150,0.00000047,0.000000
 28,0.00000081,0.00000113,0.00000075,-0.00000109,0.00000028,-0.00000040
 ,-0.00000027,0.00000037,-0.00000339,-0.00000038,-0.00000116,0.,-0.0000
 0237,-0.00000106,0.00000366,-0.00000063,0.00000242,0.00000048,0.000000
 88\\\@
 The archive entry for this job was punched.


 MEN HAVE BECOME THE TOOLS OF THEIR TOOLS... THOREAU   
 Job cpu time:       1 days 22 hours 26 minutes 51.7 seconds.
 Elapsed time:       0 days  3 hours 52 minutes 15.1 seconds.
 File lengths (MBytes):  RWF=   2725 Int=      0 D2E=      0 Chk=     66 Scr=      1
 Normal termination of Gaussian 16 at Wed Dec 10 17:27:05 2025.
