 Entering Gaussian System, Link 0=g16
 Input=Nifedipine_DFT_B3LYP_6311pp2d3p_Opt_Freq_Raman_Pol.gjf
 Output=Nifedipine_DFT_B3LYP_6311pp2d3p_Opt_Freq_Raman_Pol.log
 Initial command:
 /opt/g16/l1.exe "/home/yarger/scratches/g16/Gau-1439839.inp" -scrdir="/home/yarger/scratches/g16/"
 Entering Link 1 = /opt/g16/l1.exe PID=   1439841.
  
 Copyright (c) 1988-2019, Gaussian, Inc.  All Rights Reserved.
  
 This is part of the Gaussian(R) 16 program.  It is based on
 the Gaussian(R) 09 system (copyright 2009, Gaussian, Inc.),
 the Gaussian(R) 03 system (copyright 2003, Gaussian, Inc.),
 the Gaussian(R) 98 system (copyright 1998, Gaussian, Inc.),
 the Gaussian(R) 94 system (copyright 1995, Gaussian, Inc.),
 the Gaussian 92(TM) system (copyright 1992, Gaussian, Inc.),
 the Gaussian 90(TM) system (copyright 1990, Gaussian, Inc.),
 the Gaussian 88(TM) system (copyright 1988, Gaussian, Inc.),
 the Gaussian 86(TM) system (copyright 1986, Carnegie Mellon
 University), and the Gaussian 82(TM) system (copyright 1983,
 Carnegie Mellon University). Gaussian is a federally registered
 trademark of Gaussian, Inc.
  
 This software contains proprietary and confidential information,
 including trade secrets, belonging to Gaussian, Inc.
  
 This software is provided under written license and may be
 used, copied, transmitted, or stored only in accord with that
 written license.
  
 The following legend is applicable only to US Government
 contracts under FAR:
  
                    RESTRICTED RIGHTS LEGEND
  
 Use, reproduction and disclosure by the US Government is
 subject to restrictions as set forth in subparagraphs (a)
 and (c) of the Commercial Computer Software - Restricted
 Rights clause in FAR 52.227-19.
  
 Gaussian, Inc.
 340 Quinnipiac St., Bldg. 40, Wallingford CT 06492
  
  
 ---------------------------------------------------------------
 Warning -- This program may not be used in any manner that
 competes with the business of Gaussian, Inc. or will provide
 assistance to any competitor of Gaussian, Inc.  The licensee
 of this program is prohibited from giving any competitor of
 Gaussian, Inc. access to this program.  By using this program,
 the user acknowledges that Gaussian, Inc. is engaged in the
 business of creating and licensing software in the field of
 computational chemistry and represents and warrants to the
 licensee that it is not a competitor of Gaussian, Inc. and that
 it will not use this program in any manner prohibited above.
 ---------------------------------------------------------------
  

 Cite this work as:
 Gaussian 16, Revision C.01,
 M. J. Frisch, G. W. Trucks, H. B. Schlegel, G. E. Scuseria, 
 M. A. Robb, J. R. Cheeseman, G. Scalmani, V. Barone, 
 G. A. Petersson, H. Nakatsuji, X. Li, M. Caricato, A. V. Marenich, 
 J. Bloino, B. G. Janesko, R. Gomperts, B. Mennucci, H. P. Hratchian, 
 J. V. Ortiz, A. F. Izmaylov, J. L. Sonnenberg, D. Williams-Young, 
 F. Ding, F. Lipparini, F. Egidi, J. Goings, B. Peng, A. Petrone, 
 T. Henderson, D. Ranasinghe, V. G. Zakrzewski, J. Gao, N. Rega, 
 G. Zheng, W. Liang, M. Hada, M. Ehara, K. Toyota, R. Fukuda, 
 J. Hasegawa, M. Ishida, T. Nakajima, Y. Honda, O. Kitao, H. Nakai, 
 T. Vreven, K. Throssell, J. A. Montgomery, Jr., J. E. Peralta, 
 F. Ogliaro, M. J. Bearpark, J. J. Heyd, E. N. Brothers, K. N. Kudin, 
 V. N. Staroverov, T. A. Keith, R. Kobayashi, J. Normand, 
 K. Raghavachari, A. P. Rendell, J. C. Burant, S. S. Iyengar, 
 J. Tomasi, M. Cossi, J. M. Millam, M. Klene, C. Adamo, R. Cammi, 
 J. W. Ochterski, R. L. Martin, K. Morokuma, O. Farkas, 
 J. B. Foresman, and D. J. Fox, Gaussian, Inc., Wallingford CT, 2019.
 
 ******************************************
 Gaussian 16:  ES64L-G16RevC.01  3-Jul-2019
                 9-Dec-2025 
 ******************************************
 %nprocshared=12
 Will use up to   12 processors via shared memory.
 %mem=12GB
 %chk=Nifedipine_DFT_B3LYP_6311pp2d3p_Opt_Freq_Raman_Pol.chk
 ---------------------------------------------------------------
 #p opt freq=raman b3lyp/6-311++g(2d,3p) geom=connectivity polar
 ---------------------------------------------------------------
 1/18=20,19=15,26=3,38=1,57=2/1,3;
 2/9=110,12=2,17=6,18=5,40=1/2;
 3/5=4,6=6,7=1512,11=2,25=1,30=1,71=1,74=-5/1,2,3;
 4//1;
 5/5=2,38=5,98=1/2;
 6/7=2,8=2,9=2,10=2,28=1/1;
 7//1,2,3,16;
 1/18=20,19=15,26=3/3(2);
 2/9=110/2;
 99//99;
 2/9=110/2;
 3/5=4,6=6,7=1512,11=2,25=1,30=1,71=1,74=-5/1,2,3;
 4/5=5,16=3,69=1/1;
 5/5=2,38=5,98=1/2;
 7//1,2,3,16;
 1/18=20,19=15,26=3/3(-5);
 2/9=110/2;
 6/7=2,8=2,9=2,10=2,19=2,28=1/1;
 99/9=1/99;
 Leave Link    1 at Tue Dec  9 22:48:39 2025, MaxMem=  1610612736 cpu:               1.0 elap:               0.1
 (Enter /opt/g16/l101.exe)
 ----------
 Nifedipine
 ----------
 Symbolic Z-matrix:
 Charge =  0 Multiplicity = 1
 C                    -0.68635  -1.13966  -1.95542 
 C                    -0.11936  -1.14547  -0.67386 
 C                     1.03727  -1.89586  -0.42276 
 C                     1.6269   -2.64043  -1.45323 
 C                     1.05991  -2.63462  -2.73479 
 C                    -0.09672  -1.88423  -2.98589 
 H                    -1.56947  -0.56672  -2.14714 
 H                     2.51001  -3.21337  -1.26151 
 H                     1.51011  -3.20312  -3.52157 
 H                    -0.52963  -1.87979  -3.96439 
 C                    -0.76731  -0.32725   0.45852 
 C                    -0.17089   1.08549   0.47913 
 C                    -2.27962  -0.23      0.22304 
 C                    -0.73481   2.07636  -0.25381 
 C                    -2.79396   0.79179  -0.50389 
 C                    -3.21787  -1.29828   0.81469 
 O                    -2.74323  -2.24825   1.48986 
 O                    -4.62847  -1.21075   0.59684 
 C                     1.07451   1.37944   1.33597 
 O                     1.60041   0.46145   2.01737 
 O                     1.63334   2.69555   1.35729 
 C                    -5.19116  -2.52532   0.58322 
 H                    -6.24664  -2.45983   0.42021 
 H                    -4.74362  -3.09673  -0.20298 
 H                    -5.00425  -3.00304   1.52223 
 C                     3.04287   2.61132   1.58319 
 H                     3.46101   3.5961    1.59914 
 H                     3.2256    2.13099   2.52169 
 H                     3.49667   2.04382   0.79775 
 N                    -1.9268    1.83295  -1.0904 
 H                    -2.44867   2.68311  -1.16025 
 C                    -4.31607   0.86672  -0.72562 
 H                    -4.72506  -0.12202  -0.72934 
 H                    -4.76381   1.43495   0.06276 
 H                    -4.51691   1.3393   -1.66436 
 C                    -0.11677   3.48638  -0.21564 
 H                    -0.56804   4.0524    0.57231 
 H                     0.93623   3.40967  -0.04181 
 H                    -0.28906   3.97677  -1.15092 
 N                     1.63202  -1.90195   0.92154 
 O                     2.65346  -2.56463   1.14328 
 O                     1.1113   -1.2444    1.83156 
 H                    -0.58123  -0.80806   1.39612 
 
 ITRead=  0  0  0  0  0  0  0  0  0  0  0  0  0  0  0  0  0  0  0  0
 ITRead=  0  0  0  0  0  0  0  0  0  0  0  0  0  0  0  0  0  0  0  0
 ITRead=  0  0  0
 MicOpt= -1 -1 -1 -1 -1 -1 -1 -1 -1 -1 -1 -1 -1 -1 -1 -1 -1 -1 -1 -1
 MicOpt= -1 -1 -1 -1 -1 -1 -1 -1 -1 -1 -1 -1 -1 -1 -1 -1 -1 -1 -1 -1
 MicOpt= -1 -1 -1
 NAtoms=     43 NQM=       43 NQMF=       0 NMMI=      0 NMMIF=      0
                NMic=       0 NMicF=      0.
                    Isotopes and Nuclear Properties:
 (Nuclear quadrupole moments (NQMom) in fm**2, nuclear magnetic moments (NMagM)
  in nuclear magnetons)

  Atom         1           2           3           4           5           6           7           8           9          10
 IAtWgt=          12          12          12          12          12          12           1           1           1           1
 AtmWgt=  12.0000000  12.0000000  12.0000000  12.0000000  12.0000000  12.0000000   1.0078250   1.0078250   1.0078250   1.0078250
 NucSpn=           0           0           0           0           0           0           1           1           1           1
 AtZEff=  -0.0000000  -0.0000000  -0.0000000  -0.0000000  -0.0000000  -0.0000000  -0.0000000  -0.0000000  -0.0000000  -0.0000000
 NQMom=    0.0000000   0.0000000   0.0000000   0.0000000   0.0000000   0.0000000   0.0000000   0.0000000   0.0000000   0.0000000
 NMagM=    0.0000000   0.0000000   0.0000000   0.0000000   0.0000000   0.0000000   2.7928460   2.7928460   2.7928460   2.7928460
 AtZNuc=   6.0000000   6.0000000   6.0000000   6.0000000   6.0000000   6.0000000   1.0000000   1.0000000   1.0000000   1.0000000

  Atom        11          12          13          14          15          16          17          18          19          20
 IAtWgt=          12          12          12          12          12          12          16          16          12          16
 AtmWgt=  12.0000000  12.0000000  12.0000000  12.0000000  12.0000000  12.0000000  15.9949146  15.9949146  12.0000000  15.9949146
 NucSpn=           0           0           0           0           0           0           0           0           0           0
 AtZEff=  -0.0000000  -0.0000000  -0.0000000  -0.0000000  -0.0000000  -0.0000000  -0.0000000  -0.0000000  -0.0000000  -0.0000000
 NQMom=    0.0000000   0.0000000   0.0000000   0.0000000   0.0000000   0.0000000   0.0000000   0.0000000   0.0000000   0.0000000
 NMagM=    0.0000000   0.0000000   0.0000000   0.0000000   0.0000000   0.0000000   0.0000000   0.0000000   0.0000000   0.0000000
 AtZNuc=   6.0000000   6.0000000   6.0000000   6.0000000   6.0000000   6.0000000   8.0000000   8.0000000   6.0000000   8.0000000

  Atom        21          22          23          24          25          26          27          28          29          30
 IAtWgt=          16          12           1           1           1          12           1           1           1          14
 AtmWgt=  15.9949146  12.0000000   1.0078250   1.0078250   1.0078250  12.0000000   1.0078250   1.0078250   1.0078250  14.0030740
 NucSpn=           0           0           1           1           1           0           1           1           1           2
 AtZEff=  -0.0000000  -0.0000000  -0.0000000  -0.0000000  -0.0000000  -0.0000000  -0.0000000  -0.0000000  -0.0000000  -0.0000000
 NQMom=    0.0000000   0.0000000   0.0000000   0.0000000   0.0000000   0.0000000   0.0000000   0.0000000   0.0000000   2.0440000
 NMagM=    0.0000000   0.0000000   2.7928460   2.7928460   2.7928460   0.0000000   2.7928460   2.7928460   2.7928460   0.4037610
 AtZNuc=   8.0000000   6.0000000   1.0000000   1.0000000   1.0000000   6.0000000   1.0000000   1.0000000   1.0000000   7.0000000

  Atom        31          32          33          34          35          36          37          38          39          40
 IAtWgt=           1          12           1           1           1          12           1           1           1          14
 AtmWgt=   1.0078250  12.0000000   1.0078250   1.0078250   1.0078250  12.0000000   1.0078250   1.0078250   1.0078250  14.0030740
 NucSpn=           1           0           1           1           1           0           1           1           1           2
 AtZEff=  -0.0000000  -0.0000000  -0.0000000  -0.0000000  -0.0000000  -0.0000000  -0.0000000  -0.0000000  -0.0000000  -0.0000000
 NQMom=    0.0000000   0.0000000   0.0000000   0.0000000   0.0000000   0.0000000   0.0000000   0.0000000   0.0000000   2.0440000
 NMagM=    2.7928460   0.0000000   2.7928460   2.7928460   2.7928460   0.0000000   2.7928460   2.7928460   2.7928460   0.4037610
 AtZNuc=   1.0000000   6.0000000   1.0000000   1.0000000   1.0000000   6.0000000   1.0000000   1.0000000   1.0000000   7.0000000

  Atom        41          42          43
 IAtWgt=          16          16           1
 AtmWgt=  15.9949146  15.9949146   1.0078250
 NucSpn=           0           0           1
 AtZEff=  -0.0000000  -0.0000000  -0.0000000
 NQMom=    0.0000000   0.0000000   0.0000000
 NMagM=    0.0000000   0.0000000   2.7928460
 AtZNuc=   8.0000000   8.0000000   1.0000000
 Leave Link  101 at Tue Dec  9 22:48:42 2025, MaxMem=  1610612736 cpu:              36.6 elap:               3.1
 (Enter /opt/g16/l103.exe)

 GradGradGradGradGradGradGradGradGradGradGradGradGradGradGradGradGradGrad
 Berny optimization.
 Initialization pass.
                           ----------------------------
                           !    Initial Parameters    !
                           ! (Angstroms and Degrees)  !
 --------------------------                            --------------------------
 ! Name  Definition              Value          Derivative Info.                !
 --------------------------------------------------------------------------------
 ! R1    R(1,2)                  1.4014         estimate D2E/DX2                !
 ! R2    R(1,6)                  1.4014         estimate D2E/DX2                !
 ! R3    R(1,7)                  1.07           estimate D2E/DX2                !
 ! R4    R(2,3)                  1.4014         estimate D2E/DX2                !
 ! R5    R(2,11)                 1.54           estimate D2E/DX2                !
 ! R6    R(3,4)                  1.4014         estimate D2E/DX2                !
 ! R7    R(3,40)                 1.47           estimate D2E/DX2                !
 ! R8    R(4,5)                  1.4014         estimate D2E/DX2                !
 ! R9    R(4,8)                  1.07           estimate D2E/DX2                !
 ! R10   R(5,6)                  1.4014         estimate D2E/DX2                !
 ! R11   R(5,9)                  1.07           estimate D2E/DX2                !
 ! R12   R(6,10)                 1.07           estimate D2E/DX2                !
 ! R13   R(11,12)                1.5336         estimate D2E/DX2                !
 ! R14   R(11,13)                1.5336         estimate D2E/DX2                !
 ! R15   R(11,43)                1.07           estimate D2E/DX2                !
 ! R16   R(12,14)                1.3554         estimate D2E/DX2                !
 ! R17   R(12,19)                1.54           estimate D2E/DX2                !
 ! R18   R(13,15)                1.3554         estimate D2E/DX2                !
 ! R19   R(13,16)                1.54           estimate D2E/DX2                !
 ! R20   R(14,30)                1.4765         estimate D2E/DX2                !
 ! R21   R(14,36)                1.54           estimate D2E/DX2                !
 ! R22   R(15,30)                1.4765         estimate D2E/DX2                !
 ! R23   R(15,32)                1.54           estimate D2E/DX2                !
 ! R24   R(16,17)                1.2584         estimate D2E/DX2                !
 ! R25   R(16,18)                1.43           estimate D2E/DX2                !
 ! R26   R(18,22)                1.43           estimate D2E/DX2                !
 ! R27   R(19,20)                1.2584         estimate D2E/DX2                !
 ! R28   R(19,21)                1.43           estimate D2E/DX2                !
 ! R29   R(21,26)                1.43           estimate D2E/DX2                !
 ! R30   R(22,23)                1.07           estimate D2E/DX2                !
 ! R31   R(22,24)                1.07           estimate D2E/DX2                !
 ! R32   R(22,25)                1.07           estimate D2E/DX2                !
 ! R33   R(26,27)                1.07           estimate D2E/DX2                !
 ! R34   R(26,28)                1.07           estimate D2E/DX2                !
 ! R35   R(26,29)                1.07           estimate D2E/DX2                !
 ! R36   R(30,31)                1.0            estimate D2E/DX2                !
 ! R37   R(32,33)                1.07           estimate D2E/DX2                !
 ! R38   R(32,34)                1.07           estimate D2E/DX2                !
 ! R39   R(32,35)                1.07           estimate D2E/DX2                !
 ! R40   R(36,37)                1.07           estimate D2E/DX2                !
 ! R41   R(36,38)                1.07           estimate D2E/DX2                !
 ! R42   R(36,39)                1.07           estimate D2E/DX2                !
 ! R43   R(40,41)                1.2376         estimate D2E/DX2                !
 ! R44   R(40,42)                1.2376         estimate D2E/DX2                !
 ! A1    A(2,1,6)              120.0            estimate D2E/DX2                !
 ! A2    A(2,1,7)              120.0            estimate D2E/DX2                !
 ! A3    A(6,1,7)              120.0            estimate D2E/DX2                !
 ! A4    A(1,2,3)              120.0            estimate D2E/DX2                !
 ! A5    A(1,2,11)             120.0            estimate D2E/DX2                !
 ! A6    A(3,2,11)             120.0            estimate D2E/DX2                !
 ! A7    A(2,3,4)              120.0            estimate D2E/DX2                !
 ! A8    A(2,3,40)             120.0            estimate D2E/DX2                !
 ! A9    A(4,3,40)             120.0            estimate D2E/DX2                !
 ! A10   A(3,4,5)              120.0            estimate D2E/DX2                !
 ! A11   A(3,4,8)              120.0            estimate D2E/DX2                !
 ! A12   A(5,4,8)              120.0            estimate D2E/DX2                !
 ! A13   A(4,5,6)              120.0            estimate D2E/DX2                !
 ! A14   A(4,5,9)              120.0            estimate D2E/DX2                !
 ! A15   A(6,5,9)              120.0            estimate D2E/DX2                !
 ! A16   A(1,6,5)              120.0            estimate D2E/DX2                !
 ! A17   A(1,6,10)             120.0            estimate D2E/DX2                !
 ! A18   A(5,6,10)             120.0            estimate D2E/DX2                !
 ! A19   A(2,11,12)            109.6145         estimate D2E/DX2                !
 ! A20   A(2,11,13)            109.6145         estimate D2E/DX2                !
 ! A21   A(2,11,43)            109.4153         estimate D2E/DX2                !
 ! A22   A(12,11,13)           109.0951         estimate D2E/DX2                !
 ! A23   A(12,11,43)           109.5439         estimate D2E/DX2                !
 ! A24   A(13,11,43)           109.5439         estimate D2E/DX2                !
 ! A25   A(11,12,14)           120.2898         estimate D2E/DX2                !
 ! A26   A(11,12,19)           119.8551         estimate D2E/DX2                !
 ! A27   A(14,12,19)           119.8551         estimate D2E/DX2                !
 ! A28   A(11,13,15)           120.2898         estimate D2E/DX2                !
 ! A29   A(11,13,16)           119.8551         estimate D2E/DX2                !
 ! A30   A(15,13,16)           119.8551         estimate D2E/DX2                !
 ! A31   A(12,14,30)           121.4518         estimate D2E/DX2                !
 ! A32   A(12,14,36)           119.2738         estimate D2E/DX2                !
 ! A33   A(30,14,36)           119.2742         estimate D2E/DX2                !
 ! A34   A(13,15,30)           121.4518         estimate D2E/DX2                !
 ! A35   A(13,15,32)           119.2738         estimate D2E/DX2                !
 ! A36   A(30,15,32)           119.2742         estimate D2E/DX2                !
 ! A37   A(13,16,17)           120.0            estimate D2E/DX2                !
 ! A38   A(13,16,18)           120.0            estimate D2E/DX2                !
 ! A39   A(17,16,18)           120.0            estimate D2E/DX2                !
 ! A40   A(16,18,22)           109.4712         estimate D2E/DX2                !
 ! A41   A(12,19,20)           120.0            estimate D2E/DX2                !
 ! A42   A(12,19,21)           120.0            estimate D2E/DX2                !
 ! A43   A(20,19,21)           120.0            estimate D2E/DX2                !
 ! A44   A(19,21,26)           109.4712         estimate D2E/DX2                !
 ! A45   A(18,22,23)           109.4712         estimate D2E/DX2                !
 ! A46   A(18,22,24)           109.4712         estimate D2E/DX2                !
 ! A47   A(18,22,25)           109.4712         estimate D2E/DX2                !
 ! A48   A(23,22,24)           109.4712         estimate D2E/DX2                !
 ! A49   A(23,22,25)           109.4712         estimate D2E/DX2                !
 ! A50   A(24,22,25)           109.4712         estimate D2E/DX2                !
 ! A51   A(21,26,27)           109.4712         estimate D2E/DX2                !
 ! A52   A(21,26,28)           109.4712         estimate D2E/DX2                !
 ! A53   A(21,26,29)           109.4712         estimate D2E/DX2                !
 ! A54   A(27,26,28)           109.4712         estimate D2E/DX2                !
 ! A55   A(27,26,29)           109.4712         estimate D2E/DX2                !
 ! A56   A(28,26,29)           109.4712         estimate D2E/DX2                !
 ! A57   A(14,30,15)           111.428          estimate D2E/DX2                !
 ! A58   A(14,30,31)           108.7079         estimate D2E/DX2                !
 ! A59   A(15,30,31)           108.7079         estimate D2E/DX2                !
 ! A60   A(15,32,33)           109.4712         estimate D2E/DX2                !
 ! A61   A(15,32,34)           109.4712         estimate D2E/DX2                !
 ! A62   A(15,32,35)           109.4712         estimate D2E/DX2                !
 ! A63   A(33,32,34)           109.4712         estimate D2E/DX2                !
 ! A64   A(33,32,35)           109.4712         estimate D2E/DX2                !
 ! A65   A(34,32,35)           109.4712         estimate D2E/DX2                !
 ! A66   A(14,36,37)           109.4712         estimate D2E/DX2                !
 ! A67   A(14,36,38)           109.4712         estimate D2E/DX2                !
 ! A68   A(14,36,39)           109.4712         estimate D2E/DX2                !
 ! A69   A(37,36,38)           109.4712         estimate D2E/DX2                !
 ! A70   A(37,36,39)           109.4712         estimate D2E/DX2                !
 ! A71   A(38,36,39)           109.4712         estimate D2E/DX2                !
 ! A72   A(3,40,41)            120.0            estimate D2E/DX2                !
 ! A73   A(3,40,42)            120.0            estimate D2E/DX2                !
 ! A74   A(41,40,42)           120.0            estimate D2E/DX2                !
 ! D1    D(6,1,2,3)             -0.0001         estimate D2E/DX2                !
 ! D2    D(6,1,2,11)           179.9999         estimate D2E/DX2                !
 ! D3    D(7,1,2,3)            179.9998         estimate D2E/DX2                !
 ! D4    D(7,1,2,11)            -0.0002         estimate D2E/DX2                !
 ! D5    D(2,1,6,5)              0.0001         estimate D2E/DX2                !
 ! D6    D(2,1,6,10)           179.9999         estimate D2E/DX2                !
 ! D7    D(7,1,6,5)           -179.9998         estimate D2E/DX2                !
 ! D8    D(7,1,6,10)             0.0            estimate D2E/DX2                !
 ! D9    D(1,2,3,4)              0.0            estimate D2E/DX2                !
 ! D10   D(1,2,3,40)           179.9999         estimate D2E/DX2                !
 ! D11   D(11,2,3,4)          -180.0            estimate D2E/DX2                !
 ! D12   D(11,2,3,40)           -0.0001         estimate D2E/DX2                !
 ! D13   D(1,2,11,12)          -89.8574         estimate D2E/DX2                !
 ! D14   D(1,2,11,13)           29.8574         estimate D2E/DX2                !
 ! D15   D(1,2,11,43)          150.0            estimate D2E/DX2                !
 ! D16   D(3,2,11,12)           90.1426         estimate D2E/DX2                !
 ! D17   D(3,2,11,13)         -150.1426         estimate D2E/DX2                !
 ! D18   D(3,2,11,43)          -30.0            estimate D2E/DX2                !
 ! D19   D(2,3,4,5)              0.0001         estimate D2E/DX2                !
 ! D20   D(2,3,4,8)            179.9999         estimate D2E/DX2                !
 ! D21   D(40,3,4,5)          -179.9998         estimate D2E/DX2                !
 ! D22   D(40,3,4,8)             0.0            estimate D2E/DX2                !
 ! D23   D(2,3,40,41)         -180.0            estimate D2E/DX2                !
 ! D24   D(2,3,40,42)            0.0001         estimate D2E/DX2                !
 ! D25   D(4,3,40,41)           -0.0001         estimate D2E/DX2                !
 ! D26   D(4,3,40,42)         -180.0            estimate D2E/DX2                !
 ! D27   D(3,4,5,6)             -0.0001         estimate D2E/DX2                !
 ! D28   D(3,4,5,9)           -180.0            estimate D2E/DX2                !
 ! D29   D(8,4,5,6)           -179.9999         estimate D2E/DX2                !
 ! D30   D(8,4,5,9)              0.0002         estimate D2E/DX2                !
 ! D31   D(4,5,6,1)              0.0            estimate D2E/DX2                !
 ! D32   D(4,5,6,10)          -179.9998         estimate D2E/DX2                !
 ! D33   D(9,5,6,1)            179.9999         estimate D2E/DX2                !
 ! D34   D(9,5,6,10)             0.0001         estimate D2E/DX2                !
 ! D35   D(2,11,12,14)          89.7554         estimate D2E/DX2                !
 ! D36   D(2,11,12,19)         -90.2219         estimate D2E/DX2                !
 ! D37   D(13,11,12,14)        -30.277          estimate D2E/DX2                !
 ! D38   D(13,11,12,19)        149.7457         estimate D2E/DX2                !
 ! D39   D(43,11,12,14)       -150.1805         estimate D2E/DX2                !
 ! D40   D(43,11,12,19)         29.8423         estimate D2E/DX2                !
 ! D41   D(2,11,13,15)         -89.7554         estimate D2E/DX2                !
 ! D42   D(2,11,13,16)          90.2219         estimate D2E/DX2                !
 ! D43   D(12,11,13,15)         30.277          estimate D2E/DX2                !
 ! D44   D(12,11,13,16)       -149.7457         estimate D2E/DX2                !
 ! D45   D(43,11,13,15)        150.1805         estimate D2E/DX2                !
 ! D46   D(43,11,13,16)        -29.8423         estimate D2E/DX2                !
 ! D47   D(11,12,14,30)         -0.1478         estimate D2E/DX2                !
 ! D48   D(11,12,14,36)        179.9912         estimate D2E/DX2                !
 ! D49   D(19,12,14,30)        179.8295         estimate D2E/DX2                !
 ! D50   D(19,12,14,36)         -0.0316         estimate D2E/DX2                !
 ! D51   D(11,12,19,20)         -0.0113         estimate D2E/DX2                !
 ! D52   D(11,12,19,21)        179.9887         estimate D2E/DX2                !
 ! D53   D(14,12,19,20)       -179.9887         estimate D2E/DX2                !
 ! D54   D(14,12,19,21)          0.0113         estimate D2E/DX2                !
 ! D55   D(11,13,15,30)          0.1478         estimate D2E/DX2                !
 ! D56   D(11,13,15,32)       -179.9912         estimate D2E/DX2                !
 ! D57   D(16,13,15,30)       -179.8295         estimate D2E/DX2                !
 ! D58   D(16,13,15,32)          0.0316         estimate D2E/DX2                !
 ! D59   D(11,13,16,17)          0.0113         estimate D2E/DX2                !
 ! D60   D(11,13,16,18)       -179.9887         estimate D2E/DX2                !
 ! D61   D(15,13,16,17)        179.9887         estimate D2E/DX2                !
 ! D62   D(15,13,16,18)         -0.0113         estimate D2E/DX2                !
 ! D63   D(12,14,30,15)         31.5677         estimate D2E/DX2                !
 ! D64   D(12,14,30,31)        151.3485         estimate D2E/DX2                !
 ! D65   D(36,14,30,15)       -148.5712         estimate D2E/DX2                !
 ! D66   D(36,14,30,31)        -28.7904         estimate D2E/DX2                !
 ! D67   D(12,14,36,37)        -90.0679         estimate D2E/DX2                !
 ! D68   D(12,14,36,38)         29.9321         estimate D2E/DX2                !
 ! D69   D(12,14,36,39)        149.9321         estimate D2E/DX2                !
 ! D70   D(30,14,36,37)         90.0679         estimate D2E/DX2                !
 ! D71   D(30,14,36,38)       -149.9321         estimate D2E/DX2                !
 ! D72   D(30,14,36,39)        -29.9321         estimate D2E/DX2                !
 ! D73   D(13,15,30,14)        -31.5677         estimate D2E/DX2                !
 ! D74   D(13,15,30,31)       -151.3485         estimate D2E/DX2                !
 ! D75   D(32,15,30,14)        148.5712         estimate D2E/DX2                !
 ! D76   D(32,15,30,31)         28.7904         estimate D2E/DX2                !
 ! D77   D(13,15,32,33)        -29.9321         estimate D2E/DX2                !
 ! D78   D(13,15,32,34)         90.0679         estimate D2E/DX2                !
 ! D79   D(13,15,32,35)       -149.9321         estimate D2E/DX2                !
 ! D80   D(30,15,32,33)        149.9321         estimate D2E/DX2                !
 ! D81   D(30,15,32,34)        -90.0679         estimate D2E/DX2                !
 ! D82   D(30,15,32,35)         29.9321         estimate D2E/DX2                !
 ! D83   D(13,16,18,22)        150.0            estimate D2E/DX2                !
 ! D84   D(17,16,18,22)        -30.0            estimate D2E/DX2                !
 ! D85   D(16,18,22,23)        180.0            estimate D2E/DX2                !
 ! D86   D(16,18,22,24)        -60.0            estimate D2E/DX2                !
 ! D87   D(16,18,22,25)         60.0            estimate D2E/DX2                !
 ! D88   D(12,19,21,26)       -150.0            estimate D2E/DX2                !
 ! D89   D(20,19,21,26)         30.0            estimate D2E/DX2                !
 ! D90   D(19,21,26,27)       -180.0            estimate D2E/DX2                !
 ! D91   D(19,21,26,28)        -60.0            estimate D2E/DX2                !
 ! D92   D(19,21,26,29)         60.0            estimate D2E/DX2                !
 --------------------------------------------------------------------------------
 Trust Radius=3.00D-01 FncErr=1.00D-07 GrdErr=1.00D-06 EigMax=2.50D+02 EigMin=1.00D-04
 Number of steps in this run=    220 maximum allowed number of steps=    258.
 GradGradGradGradGradGradGradGradGradGradGradGradGradGradGradGradGradGrad

 Leave Link  103 at Tue Dec  9 22:48:43 2025, MaxMem=  1610612736 cpu:               0.7 elap:               0.1
 (Enter /opt/g16/l202.exe)
                          Input orientation:                          
 ---------------------------------------------------------------------
 Center     Atomic      Atomic             Coordinates (Angstroms)
 Number     Number       Type             X           Y           Z
 ---------------------------------------------------------------------
      1          6           0       -0.686354   -1.139656   -1.955423
      2          6           0       -0.119359   -1.145468   -0.673859
      3          6           0        1.037269   -1.895857   -0.422761
      4          6           0        1.626903   -2.640433   -1.453227
      5          6           0        1.059909   -2.634620   -2.734791
      6          6           0       -0.096719   -1.884231   -2.985889
      7          1           0       -1.569467   -0.566720   -2.147141
      8          1           0        2.510015   -3.213370   -1.261509
      9          1           0        1.510107   -3.203121   -3.521575
     10          1           0       -0.529633   -1.879795   -3.964391
     11          6           0       -0.767308   -0.327252    0.458521
     12          6           0       -0.170891    1.085493    0.479134
     13          6           0       -2.279617   -0.229996    0.223042
     14          6           0       -0.734808    2.076357   -0.253815
     15          6           0       -2.793963    0.791792   -0.503886
     16          6           0       -3.217871   -1.298282    0.814688
     17          8           0       -2.743234   -2.248249    1.489857
     18          8           0       -4.628466   -1.210754    0.596837
     19          6           0        1.074511    1.379439    1.335971
     20          8           0        1.600414    0.461453    2.017366
     21          8           0        1.633337    2.695553    1.357293
     22          6           0       -5.191156   -2.525325    0.583215
     23          1           0       -6.246636   -2.459832    0.420208
     24          1           0       -4.743618   -3.096727   -0.202984
     25          1           0       -5.004246   -3.003044    1.522230
     26          6           0        3.042868    2.611315    1.583186
     27          1           0        3.461011    3.596101    1.599140
     28          1           0        3.225602    2.130991    2.521694
     29          1           0        3.496674    2.043823    0.797748
     30          7           0       -1.926802    1.832948   -1.090397
     31          1           0       -2.448674    2.683107   -1.160251
     32          6           0       -4.316073    0.866723   -0.725624
     33          1           0       -4.725065   -0.122020   -0.729336
     34          1           0       -4.763810    1.434947    0.062762
     35          1           0       -4.516914    1.339302   -1.664364
     36          6           0       -0.116766    3.486381   -0.215645
     37          1           0       -0.568041    4.052398    0.572311
     38          1           0        0.936228    3.409671   -0.041807
     39          1           0       -0.289065    3.976766   -1.150918
     40          7           0        1.632020   -1.901952    0.921536
     41          8           0        2.653458   -2.564632    1.143284
     42          8           0        1.111304   -1.244404    1.831558
     43          1           0       -0.581231   -0.808060    1.396124
 ---------------------------------------------------------------------
                    Distance matrix (angstroms):
                    1          2          3          4          5
     1  C    0.000000
     2  C    1.401400   0.000000
     3  C    2.427296   1.401400   0.000000
     4  C    2.802800   2.427296   1.401400   0.000000
     5  C    2.427296   2.802800   2.427296   1.401400   0.000000
     6  C    1.401400   2.427296   2.802800   2.427296   1.401400
     7  H    1.070000   2.146700   3.396345   3.872800   3.396345
     8  H    3.872800   3.396345   2.146700   1.070000   2.146700
     9  H    3.396345   3.872800   3.396345   2.146700   1.070000
    10  H    2.146700   3.396345   3.872800   3.396345   2.146700
    11  C    2.548270   1.540000   2.548270   3.838989   4.342800
    12  C    3.338271   2.511819   3.340885   4.566028   5.067882
    13  C    2.848101   2.511819   3.767478   4.886818   5.067882
    14  C    3.638758   3.306868   4.352848   5.409656   5.618679
    15  C    3.206161   3.306868   4.680639   5.676748   5.618680
    16  C    3.755962   3.440915   4.471531   5.515128   5.716992
    17  O    4.162894   3.575264   4.251410   5.283337   5.697441
    18  O    4.696736   4.685187   5.797370   6.736199   6.744238
    19  C    4.503305   3.440915   3.717807   4.923833   5.716991
    20  O    4.855503   3.575263   3.439224   4.654827   5.697439
    21  O    5.573499   4.685187   4.960337   6.030905   6.744236
    22  C    5.353317   5.404383   6.340465   7.116619   7.077918
    23  H    6.188960   6.361451   7.354178   8.095368   7.960538
    24  H    4.833483   5.041121   5.908388   6.508060   6.348584
    25  H    5.848972   5.668820   6.442729   7.277154   7.418352
    26  C    6.363854   5.404383   5.325491   6.229416   7.077916
    27  H    7.229312   6.361451   6.334367   7.181591   7.960536
    28  H    6.785655   5.668820   5.447396   6.412670   7.418350
    29  H    5.933988   5.041121   4.802020   5.523151   6.348582
    30  N    3.335169   3.508748   4.809931   5.724648   5.619932
    31  H    4.283875   4.507801   5.801948   6.710904   6.562587
    32  C    4.325832   4.654460   6.031736   6.938912   6.722896
    33  H    4.341665   4.718373   6.036967   6.871238   6.618227
    34  H    5.227552   5.363961   6.706900   7.729693   7.635665
    35  H    4.571995   5.147200   6.546509   7.323206   6.931005
    36  C    4.975086   4.654460   5.508464   6.489210   6.722895
    37  H    5.775887   5.363961   6.240908   7.329023   7.635664
    38  H    5.195293   4.718373   5.320147   6.250832   6.618226
    39  H    5.194501   5.147200   6.064410   6.895625   6.931003
    40  N    3.772644   2.486942   1.470000   2.486942   3.772644
    41  O    4.773561   3.606182   2.347728   2.793105   4.193300
    42  O    4.193300   2.793105   2.347728   3.606182   4.773561
    43  H    3.369551   2.147557   2.666681   4.043791   4.805634
                    6          7          8          9         10
     6  C    0.000000
     7  H    2.146700   0.000000
     8  H    3.396345   4.942800   0.000000
     9  H    2.146700   4.280590   2.471400   0.000000
    10  H    1.070000   2.471400   4.280590   2.471400   0.000000
    11  C    3.838989   2.736837   4.693509   5.412800   4.693509
    12  C    4.564115   3.403401   5.356988   6.101117   5.354114
    13  C    4.218860   2.497091   5.834809   6.101118   4.828962
    14  C    4.853622   3.356665   6.286934   6.602332   5.427855
    15  C    4.538344   2.458705   6.689357   6.602332   4.923379
    16  C    4.952707   3.467686   6.386457   6.692187   5.514016
    17  O    5.212375   4.175287   6.008169   6.642073   5.897847
    18  O    5.816031   4.159527   7.643417   7.655907   6.168698
    19  C    5.540920   4.786462   5.468224   6.692186   6.425708
    20  O    5.780576   5.333704   5.008265   6.642072   6.767567
    21  O    6.544521   5.760333   6.522428   7.655906   7.343880
    22  C    6.253222   4.940405   7.948864   7.887689   6.544251
    23  H    7.053672   5.661366   8.948459   8.732536   7.228089
    24  H    5.550529   4.500658   7.331389   7.080497   5.778129
    25  H    6.757122   5.585487   8.016081   8.241165   7.168463
    26  C    7.137464   6.729701   6.504090   7.887687   7.981757
    27  H    7.982104   7.527909   7.446919   8.732535   8.767186
    28  H    7.582434   7.215840   6.586873   8.241163   8.500441
    29  H    6.531309   6.415067   5.731677   7.080496   7.367761
    30  N    4.556261   2.646280   6.721603   6.563913   4.898610
    31  H    5.452084   3.508323   7.705017   7.476328   5.689112
    32  C    5.520823   3.408711   7.970559   7.637103   5.689472
    33  H    5.442334   3.487940   7.885812   7.494475   5.581846
    34  H    6.487908   4.369687   8.733217   8.586104   6.718164
    35  H    5.628118   3.543083   8.382532   7.772247   5.617038
    36  C    6.043024   4.718967   7.271896   7.637102   6.558918
    37  H    6.937327   5.452937   8.101156   8.586103   7.468203
    38  H    6.144917   5.150012   6.915862   7.494473   6.746396
    39  H    6.144543   4.824433   7.716550   7.772246   6.501754
    40  N    4.272800   4.631321   2.693766   4.631321   5.342800
    41  O    5.007643   5.714162   2.494888   4.845186   6.057179
    42  O    5.007643   4.845186   3.924319   5.714161   6.057179
    43  H    4.538164   3.686405   4.733321   5.856088   5.466845
                   11         12         13         14         15
    11  C    0.000000
    12  C    1.533619   0.000000
    13  C    1.533619   2.498563   0.000000
    14  C    2.507153   1.355370   2.816575   0.000000
    15  C    2.507153   2.816575   1.355370   2.439829   0.000000
    16  C    2.659889   3.883177   1.540000   4.323829   2.507339
    17  O    2.942476   4.330398   2.427572   5.077045   3.635854
    18  O    3.963363   5.015634   2.572683   5.166168   2.930390
    19  C    2.659889   1.540000   3.883177   2.507339   4.323829
    20  O    2.942476   2.427572   4.330398   3.635854   5.077045
    21  O    3.963363   2.572683   5.015633   2.930390   5.166168
    22  C    4.941406   6.184811   3.724958   6.460274   4.234570
    23  H    5.879830   7.034734   4.555028   7.170186   4.831972
    24  H    4.890667   6.234267   3.804070   6.544765   4.360307
    25  H    5.122790   6.416035   4.098938   6.868971   4.836453
    26  C    4.941406   3.724958   6.184811   4.234570   6.460274
    27  H    5.879830   4.555028   7.034734   4.831972   7.170186
    28  H    5.122790   4.098937   6.416035   4.836453   6.868971
    29  H    4.890667   3.804070   6.234267   4.360307   6.544765
    30  N    2.900007   2.470898   2.470898   1.476472   1.476472
    31  H    3.809157   3.229279   3.229279   2.031529   2.031529
    32  C    3.927023   4.322249   2.499982   3.809368   1.540000
    33  H    4.137265   4.864050   2.626575   4.580517   2.148263
    34  H    4.385658   4.624974   2.994818   4.092003   2.148263
    35  H    4.619912   4.852516   3.321218   4.103319   2.148263
    36  C    3.927023   2.499982   4.322249   1.540000   3.809368
    37  H    4.385658   2.994818   4.624974   2.148263   4.092003
    38  H    4.137265   2.626575   4.864050   2.148263   4.580517
    39  H    4.619912   3.321218   4.852516   2.148263   4.103319
    40  N    2.907032   3.517248   4.310944   4.776009   5.373770
    41  O    4.144443   4.662774   5.534673   5.913630   6.607053
    42  O    2.501116   2.983538   3.887762   4.334093   4.985128
    43  H    1.070000   2.143547   2.143547   3.326522   3.326522
                   16         17         18         19         20
    16  C    0.000000
    17  O    1.258400   0.000000
    18  O    1.430000   2.329803   0.000000
    19  C    5.085908   5.268678   6.307088   0.000000
    20  O    5.268678   5.146652   6.604024   1.258400   0.000000
    21  O    6.307088   6.604024   7.419415   1.430000   2.329803
    22  C    2.335180   2.625089   1.430000   7.421077   7.556656
    23  H    3.267757   3.669161   2.051796   8.317320   8.524143
    24  H    2.568651   2.754481   2.051796   7.500338   7.605087
    25  H    2.568651   2.383892   2.051796   7.496141   7.474586
    26  C    7.421078   7.556656   8.627310   2.335180   2.625089
    27  H    8.317320   8.524143   9.463092   3.267757   3.669162
    28  H    7.496141   7.474586   8.749785   2.568651   2.383892
    29  H    7.500338   7.605087   8.755030   2.568651   2.754481
    30  N    3.885976   4.896983   4.405664   3.885976   4.896983
    31  H    4.510377   5.606078   4.795936   4.510377   5.606078
    32  C    2.875040   4.133428   2.482419   5.794087   6.533992
    33  H    2.457486   3.656955   1.718548   6.336793   6.920729
    34  H    3.228911   4.436808   2.702460   5.975795   6.728411
    35  H    3.845785   5.095643   3.410024   6.345679   7.193570
    36  C    5.794087   6.533992   6.563433   2.875040   4.133428
    37  H    5.975795   6.728411   6.647438   3.228911   4.436808
    38  H    6.336793   6.920729   7.260993   2.457486   3.656956
    39  H    6.345679   7.193570   6.985372   3.845785   5.095643
    40  N    4.888483   4.425579   6.306890   3.354116   2.605288
    41  O    6.015323   5.417055   7.426844   4.252752   3.321162
    42  O    4.447323   3.997740   5.871169   2.670489   1.784294
    43  H    2.744130   2.599458   4.145013   2.744130   2.599458
                   21         22         23         24         25
    21  O    0.000000
    22  C    8.627310   0.000000
    23  H    9.463092   1.070000   0.000000
    24  H    8.755030   1.070000   1.747303   0.000000
    25  H    8.749785   1.070000   1.747303   1.747303   0.000000
    26  C    1.430000   9.756237  10.647250   9.818428   9.812278
    27  H    2.051796  10.647250  11.502288  10.740463  10.733835
    28  H    2.051796   9.812278  10.733835   9.912688   9.751290
    29  H    2.051796   9.818428  10.740463   9.763664   9.912688
    30  N    4.405664   5.696624   6.274620   5.746621   6.299469
    31  H    4.795936   6.139107   6.585756   6.292027   6.786675
    32  C    6.563433   3.739628   4.013224   4.020558   4.527861
    33  H    7.260993   2.777752   3.016951   3.020973   3.667123
    34  H    6.647438   4.017120   4.182804   4.539505   4.677994
    35  H    6.985372   4.521234   4.665919   4.676044   5.408128
    36  C    2.482419   7.907479   8.563707   8.046443   8.307847
    37  H    2.702460   8.039885   8.641685   8.315439   8.388178
    38  H    1.718548   8.553342   9.287522   8.638278   8.880223
    39  H    3.410023   8.325557   8.910156   8.412843   8.837217
    40  N    4.618110   6.859940   7.914277   6.583372   6.753759
    41  O    5.362462   7.864679   8.930033   7.537393   7.679599
    42  O    4.002588   6.551344   7.590023   6.469202   6.370907
    43  H    4.145013   4.986103   5.981436   5.012046   4.939324
                   26         27         28         29         30
    26  C    0.000000
    27  H    1.070000   0.000000
    28  H    1.070000   1.747303   0.000000
    29  H    1.070000   1.747303   1.747303   0.000000
    30  N    5.696624   6.274620   6.299469   5.746621   0.000000
    31  H    6.139107   6.585756   6.786675   6.292028   1.000000
    32  C    7.907479   8.563707   8.307847   8.046443   2.602934
    33  H    8.553342   9.287522   8.880223   8.638278   3.432570
    34  H    8.039885   8.641685   8.388178   8.315439   3.088170
    35  H    8.325557   8.910156   8.837217   8.412843   2.698481
    36  C    3.739628   4.013224   4.527861   4.020558   2.602934
    37  H    4.017120   4.182804   4.677994   4.539505   3.088170
    38  H    2.777752   3.016951   3.667123   3.020973   3.432570
    39  H    4.521234   4.665919   5.408128   4.676044   2.698481
    40  N    4.774710   5.833776   4.622190   4.365936   5.537379
    41  O    5.209183   6.230135   4.927093   4.697688   6.731035
    42  O    4.319630   5.385688   4.042257   4.191801   5.219004
    43  H    4.986103   5.981436   4.939323   5.012046   3.868885
                   31         32         33         34         35
    31  H    0.000000
    32  C    2.641085   0.000000
    33  H    3.638183   1.070000   0.000000
    34  H    2.900605   1.070000   1.747303   0.000000
    35  H    2.517450   1.070000   1.747303   1.747303   0.000000
    36  C    2.641085   4.975628   5.875445   5.087328   5.105883
    37  H    2.900605   5.087328   6.033316   4.971435   5.287457
    38  H    3.638183   5.875446   6.707889   6.033316   6.054409
    39  H    2.517450   5.105883   6.054409   5.287457   5.009446
    40  N    6.481409   6.764503   6.804856   7.264917   7.416332
    41  O    7.673121   7.990080   7.994727   8.495883   8.633529
    42  O    6.086847   6.360225   6.471563   6.695112   7.111529
    43  H    4.712817   4.610396   4.707397   4.929797   5.428383
                   36         37         38         39         40
    36  C    0.000000
    37  H    1.070000   0.000000
    38  H    1.070000   1.747303   0.000000
    39  H    1.070000   1.747303   1.747303   0.000000
    40  N    5.778024   6.357398   5.442930   6.522649   0.000000
    41  O    6.792319   7.381677   6.328161   7.530717   1.237600
    42  O    5.299012   5.697545   5.020016   6.173881   1.237600
    43  H    4.610396   4.929797   4.707397   5.428383   2.514023
                   41         42         43
    41  O    0.000000
    42  O    2.143586   0.000000
    43  H    3.689538   1.801298   0.000000
 Stoichiometry    C17H18N2O6
 Framework group  C1[X(C17H18N2O6)]
 Deg. of freedom   123
 Full point group                 C1      NOp   1
 Largest Abelian subgroup         C1      NOp   1
 Largest concise Abelian subgroup C1      NOp   1
                         Standard orientation:                         
 ---------------------------------------------------------------------
 Center     Atomic      Atomic             Coordinates (Angstroms)
 Number     Number       Type             X           Y           Z
 ---------------------------------------------------------------------
      1          6           0       -0.678356    1.167187    1.801540
      2          6           0        0.043313    1.109564    0.601625
      3          6           0        0.954888    2.125078    0.282750
      4          6           0        1.144797    3.198216    1.163789
      5          6           0        0.423130    3.255839    2.363705
      6          6           0       -0.488447    2.240325    2.682581
      7          1           0       -1.374366    0.391821    2.045008
      8          1           0        1.840806    3.973583    0.920321
      9          1           0        0.568128    4.075204    3.036399
     10          1           0       -1.039457    2.284323    3.598742
     11          6           0       -0.165377   -0.069709   -0.366551
     12          6           0        0.813035   -1.198957   -0.020868
     13          6           0       -1.601195   -0.593149   -0.238377
     14          6           0        0.461427   -2.159940    0.867902
     15          6           0       -1.896051   -1.568372    0.655505
     16          6           0       -2.712938   -0.007763   -1.128855
     17          8           0       -2.442265    0.897915   -1.959550
     18          8           0       -4.052853   -0.493372   -1.011757
     19          6           0        2.201306   -1.240906   -0.686107
     20          8           0        2.530672   -0.349955   -1.511513
     21          8           0        3.116136   -2.292302   -0.365868
     22          6           0       -4.969758    0.553915   -1.339440
     23          1           0       -5.972352    0.190558   -1.251821
     24          1           0       -4.828035    1.375028   -0.668182
     25          1           0       -4.794964    0.879793   -2.343507
     26          6           0        4.457178   -1.811608   -0.490121
     27          1           0        5.141700   -2.598317   -0.250502
     28          1           0        4.627192   -1.484530   -1.494619
     29          1           0        4.606078   -0.992295    0.181784
     30          7           0       -0.858671   -2.151946    1.529149
     31          1           0       -1.114595   -3.094054    1.745795
     32          6           0       -3.345629   -2.076741    0.764525
     33          1           0       -4.020863   -1.285775    0.512868
     34          1           0       -3.488147   -2.895375    0.090413
     35          1           0       -3.535051   -2.402290    1.766042
     36          6           0        1.462057   -3.283145    1.197673
     37          1           0        1.315488   -4.100762    0.523196
     38          1           0        2.460616   -2.912187    1.096816
     39          1           0        1.305312   -3.616893    2.202134
     40          7           0        1.711884    2.064632   -0.975902
     41          8           0        2.516913    2.961450   -1.257506
     42          8           0        1.544173    1.116926   -1.753963
     43          1           0        0.007524    0.259044   -1.370008
 ---------------------------------------------------------------------
 Rotational constants (GHZ):           0.2753052           0.1966507           0.1565569
 Leave Link  202 at Tue Dec  9 22:48:43 2025, MaxMem=  1610612736 cpu:               0.1 elap:               0.0
 (Enter /opt/g16/l301.exe)
 Standard basis: 6-311++G(2d,3p) (5D, 7F)
 Ernie: Thresh=  0.10000D-02 Tol=  0.10000D-05 Strict=F.
 There are   959 symmetry adapted cartesian basis functions of A   symmetry.
 There are   909 symmetry adapted basis functions of A   symmetry.
   909 basis functions,  1320 primitive gaussians,   959 cartesian basis functions
    91 alpha electrons       91 beta electrons
       nuclear repulsion energy      2338.3317050050 Hartrees.
 IExCor=  402 DFT=T Ex+Corr=B3LYP ExCW=0 ScaHFX=  0.200000
 ScaDFX=  0.800000  0.720000  1.000000  0.810000 ScalE2=  1.000000  1.000000
 IRadAn=      5 IRanWt=     -1 IRanGd=            0 ICorTp=0 IEmpDi=  4
 NAtoms=   43 NActive=   43 NUniq=   43 SFac= 1.00D+00 NAtFMM=   60 NAOKFM=F Big=F
 Integral buffers will be    131072 words long.
 Raffenetti 2 integral format.
 Two-electron integral symmetry is turned on.
 Leave Link  301 at Tue Dec  9 22:48:43 2025, MaxMem=  1610612736 cpu:               2.3 elap:               0.2
 (Enter /opt/g16/l302.exe)
 NPDir=0 NMtPBC=     1 NCelOv=     1 NCel=       1 NClECP=     1 NCelD=      1
         NCelK=      1 NCelE2=     1 NClLst=     1 CellRange=     0.0.
 One-electron integrals computed using PRISM.
 One-electron integral symmetry used in STVInt
 NBasis=   909 RedAO= T EigKep=  1.09D-06  NBF=   909
 NBsUse=   903 1.00D-06 EigRej=  6.13D-07 NBFU=   903
 Precomputing XC quadrature grid using
 IXCGrd= 4 IRadAn=           5 IRanWt=          -1 IRanGd=           0 AccXCQ= 0.00D+00.
 Generated NRdTot=       0 NPtTot=           0 NUsed=           0 NTot=          32
 NSgBfM=   945   945   945   945   945 MxSgAt=    43 MxSgA2=    43.
 Leave Link  302 at Tue Dec  9 22:48:48 2025, MaxMem=  1610612736 cpu:              64.0 elap:               5.4
 (Enter /opt/g16/l303.exe)
 DipDrv:  MaxL=1.
 Leave Link  303 at Tue Dec  9 22:48:49 2025, MaxMem=  1610612736 cpu:               4.8 elap:               0.5
 (Enter /opt/g16/l401.exe)
 ExpMin= 3.60D-02 ExpMax= 8.59D+03 ExpMxC= 1.30D+03 IAcc=3 IRadAn=         5 AccDes= 0.00D+00
 Harris functional with IExCor=  402 and IRadAn=       5 diagonalized for initial guess.
 HarFok:  IExCor=  402 AccDes= 0.00D+00 IRadAn=         5 IDoV= 1 UseB2=F ITyADJ=14
 ICtDFT=  3500011 ScaDFX=  1.000000  1.000000  1.000000  1.000000
 FoFCou: FMM=F IPFlag=           0 FMFlag=      100000 FMFlg1=           0
         NFxFlg=           0 DoJE=T BraDBF=F KetDBF=T FulRan=T
         wScrn=  0.000000 ICntrl=       500 IOpCl=  0 I1Cent=   200000004 NGrid=           0
         NMat0=    1 NMatS0=      1 NMatT0=    0 NMatD0=    1 NMtDS0=    0 NMtDT0=    0
 Petite list used in FoFCou.
 Harris En= -1219.72655802752    
 JPrj=0 DoOrth=F DoCkMO=F.
 Leave Link  401 at Tue Dec  9 22:49:25 2025, MaxMem=  1610612736 cpu:             435.1 elap:              36.4
 (Enter /opt/g16/l502.exe)
 Integral symmetry usage will be decided dynamically.
 Closed shell SCF:
 Using DIIS extrapolation, IDIIS=  1040.
 NGot=  1610612736 LenX=  1608752414 LenY=  1607831774
 Requested convergence on RMS density matrix=1.00D-08 within 128 cycles.
 Requested convergence on MAX density matrix=1.00D-06.
 Requested convergence on             energy=1.00D-06.
 No special actions if energy rises.
 Fock matrices will be formed incrementally for  20 cycles.

 Cycle   1  Pass 1  IDiag  1:
 FoFJK:  IHMeth= 1 ICntrl=       0 DoSepK=F KAlg= 0 I1Cent=           0 FoldK=F
 IRaf= 800000000 NMat=       1 IRICut=       1 DoRegI=T DoRafI=F ISym2E= 0 IDoP0=0 IntGTp=1.
 FoFCou: FMM=F IPFlag=           0 FMFlag=      100000 FMFlg1=           0
         NFxFlg=           0 DoJE=F BraDBF=F KetDBF=F FulRan=T
         wScrn=  0.000000 ICntrl=         0 IOpCl=  0 I1Cent=           0 NGrid=           0
         NMat0=    1 NMatS0=      1 NMatT0=    0 NMatD0=    1 NMtDS0=    0 NMtDT0=    0
 Symmetry not used in FoFCou.
 E= -1218.86661676386    
 DIIS: error= 1.59D-02 at cycle   1 NSaved=   1.
 NSaved= 1 IEnMin= 1 EnMin= -1218.86661676386     IErMin= 1 ErrMin= 1.59D-02
 ErrMax= 1.59D-02  0.00D+00 EMaxC= 1.00D-01 BMatC= 9.64D-01 BMatP= 9.64D-01
 IDIUse=3 WtCom= 8.41D-01 WtEn= 1.59D-01
 Coeff-Com:  0.100D+01
 Coeff-En:   0.100D+01
 Coeff:      0.100D+01
 Gap=     0.081 Goal=   None    Shift=    0.000
 GapD=    0.081 DampG=0.500 DampE=0.500 DampFc=0.2500 IDamp=-1.
 Damping current iteration by 2.50D-01
 RMSDP=1.58D-02 MaxDP=2.71D+00              OVMax= 3.86D-01

 Cycle   2  Pass 1  IDiag  1:
 RMSU=  3.66D-03    CP:  1.06D+00
 E= -1219.11411636888     Delta-E=       -0.247499605017 Rises=F Damp=T
 DIIS: error= 8.23D-03 at cycle   2 NSaved=   2.
 NSaved= 2 IEnMin= 2 EnMin= -1219.11411636888     IErMin= 2 ErrMin= 8.23D-03
 ErrMax= 8.23D-03  0.00D+00 EMaxC= 1.00D-01 BMatC= 1.87D-01 BMatP= 9.64D-01
 IDIUse=3 WtCom= 9.18D-01 WtEn= 8.23D-02
 Coeff-Com: -0.416D+00 0.142D+01
 Coeff-En:   0.000D+00 0.100D+01
 Coeff:     -0.381D+00 0.138D+01
 Gap=     0.200 Goal=   None    Shift=    0.000
 RMSDP=4.56D-03 MaxDP=4.49D-01 DE=-2.47D-01 OVMax= 3.00D-01

 Cycle   3  Pass 1  IDiag  1:
 RMSU=  4.21D-03    CP:  1.01D+00  6.84D-01
 E= -1219.33276239796     Delta-E=       -0.218646029084 Rises=F Damp=F
 DIIS: error= 9.55D-03 at cycle   3 NSaved=   3.
 NSaved= 3 IEnMin= 3 EnMin= -1219.33276239796     IErMin= 2 ErrMin= 8.23D-03
 ErrMax= 9.55D-03  0.00D+00 EMaxC= 1.00D-01 BMatC= 3.31D-01 BMatP= 1.87D-01
 IDIUse=3 WtCom= 9.28D-02 WtEn= 9.07D-01
 Coeff-Com: -0.388D+00 0.102D+01 0.371D+00
 Coeff-En:   0.000D+00 0.186D+00 0.814D+00
 Coeff:     -0.360D-01 0.263D+00 0.773D+00
 Gap=     0.258 Goal=   None    Shift=    0.000
 RMSDP=7.39D-03 MaxDP=9.29D-01 DE=-2.19D-01 OVMax= 5.32D-01

 Cycle   4  Pass 1  IDiag  1:
 RMSU=  5.22D-03    CP:  1.06D+00  1.38D+00 -3.84D-02
 E= -1217.93216655238     Delta-E=        1.400595845581 Rises=F Damp=F
 DIIS: error= 2.43D-02 at cycle   4 NSaved=   4.
 NSaved= 4 IEnMin= 3 EnMin= -1219.33276239796     IErMin= 2 ErrMin= 8.23D-03
 ErrMax= 2.43D-02  0.00D+00 EMaxC= 1.00D-01 BMatC= 1.92D+00 BMatP= 1.87D-01
 IDIUse=2 WtCom= 0.00D+00 WtEn= 1.00D+00
 Coeff-En:   0.000D+00 0.000D+00 0.779D+00 0.221D+00
 Coeff:      0.000D+00 0.000D+00 0.779D+00 0.221D+00
 Gap=     0.134 Goal=   None    Shift=    0.000
 RMSDP=4.70D-03 MaxDP=9.00D-01 DE= 1.40D+00 OVMax= 4.30D-01

 Cycle   5  Pass 1  IDiag  1:
 RMSU=  1.57D-03    CP:  1.01D+00  9.33D-01  4.38D-01  3.59D-01
 E= -1219.48263988669     Delta-E=       -1.550473334309 Rises=F Damp=F
 DIIS: error= 6.37D-03 at cycle   5 NSaved=   5.
 NSaved= 5 IEnMin= 5 EnMin= -1219.48263988669     IErMin= 5 ErrMin= 6.37D-03
 ErrMax= 6.37D-03  0.00D+00 EMaxC= 1.00D-01 BMatC= 1.59D-01 BMatP= 1.87D-01
 IDIUse=3 WtCom= 9.36D-01 WtEn= 6.37D-02
 Coeff-Com: -0.111D+00 0.239D+00 0.372D+00-0.302D-01 0.530D+00
 Coeff-En:   0.000D+00 0.000D+00 0.367D+00 0.000D+00 0.633D+00
 Coeff:     -0.104D+00 0.224D+00 0.372D+00-0.283D-01 0.537D+00
 Gap=     0.138 Goal=   None    Shift=    0.000
 RMSDP=1.32D-03 MaxDP=1.35D-01 DE=-1.55D+00 OVMax= 1.24D-01

 Cycle   6  Pass 1  IDiag  1:
 RMSU=  7.09D-04    CP:  1.01D+00  9.04D-01  5.95D-01  2.11D-01  7.29D-01
 E= -1219.60278674279     Delta-E=       -0.120146856100 Rises=F Damp=F
 DIIS: error= 1.70D-03 at cycle   6 NSaved=   6.
 NSaved= 6 IEnMin= 6 EnMin= -1219.60278674279     IErMin= 6 ErrMin= 1.70D-03
 ErrMax= 1.70D-03  0.00D+00 EMaxC= 1.00D-01 BMatC= 1.13D-02 BMatP= 1.59D-01
 IDIUse=3 WtCom= 9.83D-01 WtEn= 1.70D-02
 Coeff-Com: -0.702D-01 0.121D+00 0.218D+00-0.471D-01 0.407D+00 0.371D+00
 Coeff-En:   0.000D+00 0.000D+00 0.000D+00 0.000D+00 0.000D+00 0.100D+01
 Coeff:     -0.690D-01 0.119D+00 0.214D+00-0.463D-01 0.400D+00 0.382D+00
 Gap=     0.144 Goal=   None    Shift=    0.000
 RMSDP=3.77D-04 MaxDP=3.41D-02 DE=-1.20D-01 OVMax= 1.70D-02

 Cycle   7  Pass 1  IDiag  1:
 RMSU=  1.97D-04    CP:  1.00D+00  8.93D-01  5.99D-01  2.22D-01  7.60D-01
                    CP:  5.79D-01
 E= -1219.61101634520     Delta-E=       -0.008229602414 Rises=F Damp=F
 DIIS: error= 3.85D-04 at cycle   7 NSaved=   7.
 NSaved= 7 IEnMin= 7 EnMin= -1219.61101634520     IErMin= 7 ErrMin= 3.85D-04
 ErrMax= 3.85D-04  0.00D+00 EMaxC= 1.00D-01 BMatC= 5.29D-04 BMatP= 1.13D-02
 IDIUse=3 WtCom= 9.96D-01 WtEn= 3.85D-03
 Coeff-Com: -0.182D-01 0.329D-01 0.629D-01-0.166D-01 0.100D+00 0.152D+00
 Coeff-Com:  0.687D+00
 Coeff-En:   0.000D+00 0.000D+00 0.000D+00 0.000D+00 0.000D+00 0.000D+00
 Coeff-En:   0.100D+01
 Coeff:     -0.181D-01 0.328D-01 0.627D-01-0.166D-01 0.996D-01 0.151D+00
 Coeff:      0.688D+00
 Gap=     0.146 Goal=   None    Shift=    0.000
 RMSDP=1.55D-04 MaxDP=2.26D-02 DE=-8.23D-03 OVMax= 1.34D-02

 Cycle   8  Pass 1  IDiag  1:
 RMSU=  1.27D-04    CP:  1.00D+00  8.98D-01  6.16D-01  2.16D-01  7.65D-01
                    CP:  5.65D-01  7.96D-01
 E= -1219.61131648793     Delta-E=       -0.000300142721 Rises=F Damp=F
 DIIS: error= 1.92D-04 at cycle   8 NSaved=   8.
 NSaved= 8 IEnMin= 8 EnMin= -1219.61131648793     IErMin= 8 ErrMin= 1.92D-04
 ErrMax= 1.92D-04  0.00D+00 EMaxC= 1.00D-01 BMatC= 1.86D-04 BMatP= 5.29D-04
 IDIUse=3 WtCom= 9.98D-01 WtEn= 1.92D-03
 Coeff-Com:  0.471D-02-0.741D-02 0.642D-02-0.114D-02-0.648D-02 0.248D-01
 Coeff-Com:  0.472D+00 0.507D+00
 Coeff-En:   0.000D+00 0.000D+00 0.000D+00 0.000D+00 0.000D+00 0.000D+00
 Coeff-En:   0.244D+00 0.756D+00
 Coeff:      0.470D-02-0.739D-02 0.640D-02-0.114D-02-0.647D-02 0.247D-01
 Coeff:      0.471D+00 0.508D+00
 Gap=     0.146 Goal=   None    Shift=    0.000
 RMSDP=8.49D-05 MaxDP=1.35D-02 DE=-3.00D-04 OVMax= 2.91D-03

 Cycle   9  Pass 1  IDiag  1:
 RMSU=  3.21D-05    CP:  1.00D+00  8.87D-01  6.12D-01  2.17D-01  7.54D-01
                    CP:  5.74D-01  9.40D-01  6.20D-01
 E= -1219.61146824996     Delta-E=       -0.000151762031 Rises=F Damp=F
 DIIS: error= 4.83D-05 at cycle   9 NSaved=   9.
 NSaved= 9 IEnMin= 9 EnMin= -1219.61146824996     IErMin= 9 ErrMin= 4.83D-05
 ErrMax= 4.83D-05  0.00D+00 EMaxC= 1.00D-01 BMatC= 1.12D-05 BMatP= 1.86D-04
 IDIUse=1 WtCom= 1.00D+00 WtEn= 0.00D+00
 Coeff-Com:  0.360D-02-0.562D-02-0.302D-03 0.218D-03-0.109D-01 0.733D-02
 Coeff-Com:  0.253D+00 0.306D+00 0.446D+00
 Coeff:      0.360D-02-0.562D-02-0.302D-03 0.218D-03-0.109D-01 0.733D-02
 Coeff:      0.253D+00 0.306D+00 0.446D+00
 Gap=     0.146 Goal=   None    Shift=    0.000
 RMSDP=1.45D-05 MaxDP=1.66D-03 DE=-1.52D-04 OVMax= 9.88D-04

 Cycle  10  Pass 1  IDiag  1:
 RMSU=  1.04D-05    CP:  1.00D+00  8.87D-01  6.12D-01  2.18D-01  7.56D-01
                    CP:  5.79D-01  9.46D-01  6.12D-01  8.06D-01
 E= -1219.61147623826     Delta-E=       -0.000007988300 Rises=F Damp=F
 DIIS: error= 2.13D-05 at cycle  10 NSaved=  10.
 NSaved=10 IEnMin=10 EnMin= -1219.61147623826     IErMin=10 ErrMin= 2.13D-05
 ErrMax= 2.13D-05  0.00D+00 EMaxC= 1.00D-01 BMatC= 1.70D-06 BMatP= 1.12D-05
 IDIUse=1 WtCom= 1.00D+00 WtEn= 0.00D+00
 Coeff-Com:  0.154D-02-0.255D-02-0.685D-03 0.338D-03-0.458D-02 0.366D-02
 Coeff-Com:  0.929D-01 0.113D+00 0.278D+00 0.518D+00
 Coeff:      0.154D-02-0.255D-02-0.685D-03 0.338D-03-0.458D-02 0.366D-02
 Coeff:      0.929D-01 0.113D+00 0.278D+00 0.518D+00
 Gap=     0.146 Goal=   None    Shift=    0.000
 RMSDP=7.06D-06 MaxDP=8.34D-04 DE=-7.99D-06 OVMax= 3.30D-04

 Cycle  11  Pass 1  IDiag  1:
 RMSU=  5.13D-06    CP:  1.00D+00  8.87D-01  6.12D-01  2.18D-01  7.55D-01
                    CP:  5.80D-01  9.50D-01  6.13D-01  8.51D-01  7.66D-01
 E= -1219.61147738875     Delta-E=       -0.000001150494 Rises=F Damp=F
 DIIS: error= 9.21D-06 at cycle  11 NSaved=  11.
 NSaved=11 IEnMin=11 EnMin= -1219.61147738875     IErMin=11 ErrMin= 9.21D-06
 ErrMax= 9.21D-06  0.00D+00 EMaxC= 1.00D-01 BMatC= 3.12D-07 BMatP= 1.70D-06
 IDIUse=1 WtCom= 1.00D+00 WtEn= 0.00D+00
 Coeff-Com:  0.228D-03-0.398D-03-0.816D-03 0.180D-03-0.163D-02 0.137D-02
 Coeff-Com:  0.188D-01 0.198D-01 0.113D+00 0.332D+00 0.518D+00
 Coeff:      0.228D-03-0.398D-03-0.816D-03 0.180D-03-0.163D-02 0.137D-02
 Coeff:      0.188D-01 0.198D-01 0.113D+00 0.332D+00 0.518D+00
 Gap=     0.146 Goal=   None    Shift=    0.000
 RMSDP=2.43D-06 MaxDP=2.44D-04 DE=-1.15D-06 OVMax= 2.45D-04

 Cycle  12  Pass 1  IDiag  1:
 RMSU=  1.66D-06    CP:  1.00D+00  8.87D-01  6.12D-01  2.18D-01  7.56D-01
                    CP:  5.81D-01  9.49D-01  6.14D-01  8.63D-01  8.48D-01
                    CP:  7.74D-01
 E= -1219.61147759376     Delta-E=       -0.000000205006 Rises=F Damp=F
 DIIS: error= 5.33D-06 at cycle  12 NSaved=  12.
 NSaved=12 IEnMin=12 EnMin= -1219.61147759376     IErMin=12 ErrMin= 5.33D-06
 ErrMax= 5.33D-06  0.00D+00 EMaxC= 1.00D-01 BMatC= 8.25D-08 BMatP= 3.12D-07
 IDIUse=1 WtCom= 1.00D+00 WtEn= 0.00D+00
 Coeff-Com: -0.174D-03 0.245D-03-0.407D-03 0.486D-04-0.662D-04 0.454D-03
 Coeff-Com: -0.342D-02-0.805D-02 0.247D-01 0.924D-01 0.343D+00 0.551D+00
 Coeff:     -0.174D-03 0.245D-03-0.407D-03 0.486D-04-0.662D-04 0.454D-03
 Coeff:     -0.342D-02-0.805D-02 0.247D-01 0.924D-01 0.343D+00 0.551D+00
 Gap=     0.146 Goal=   None    Shift=    0.000
 RMSDP=1.31D-06 MaxDP=1.19D-04 DE=-2.05D-07 OVMax= 5.57D-05

 Cycle  13  Pass 1  IDiag  1:
 RMSU=  8.14D-07    CP:  1.00D+00  8.88D-01  6.12D-01  2.18D-01  7.56D-01
                    CP:  5.82D-01  9.51D-01  6.11D-01  8.69D-01  8.71D-01
                    CP:  8.44D-01  8.65D-01
 E= -1219.61147765008     Delta-E=       -0.000000056321 Rises=F Damp=F
 DIIS: error= 1.69D-06 at cycle  13 NSaved=  13.
 NSaved=13 IEnMin=13 EnMin= -1219.61147765008     IErMin=13 ErrMin= 1.69D-06
 ErrMax= 1.69D-06  0.00D+00 EMaxC= 1.00D-01 BMatC= 1.40D-08 BMatP= 8.25D-08
 IDIUse=1 WtCom= 1.00D+00 WtEn= 0.00D+00
 Coeff-Com: -0.140D-03 0.189D-03-0.138D-03 0.877D-05 0.258D-03 0.615D-04
 Coeff-Com: -0.464D-02-0.852D-02-0.445D-02-0.118D-01 0.143D+00 0.361D+00
 Coeff-Com:  0.525D+00
 Coeff:     -0.140D-03 0.189D-03-0.138D-03 0.877D-05 0.258D-03 0.615D-04
 Coeff:     -0.464D-02-0.852D-02-0.445D-02-0.118D-01 0.143D+00 0.361D+00
 Coeff:      0.525D+00
 Gap=     0.146 Goal=   None    Shift=    0.000
 RMSDP=6.36D-07 MaxDP=9.21D-05 DE=-5.63D-08 OVMax= 3.80D-05

 Cycle  14  Pass 1  IDiag  1:
 RMSU=  3.26D-07    CP:  1.00D+00  8.88D-01  6.12D-01  2.18D-01  7.56D-01
                    CP:  5.82D-01  9.51D-01  6.11D-01  8.75D-01  8.74D-01
                    CP:  8.67D-01  9.32D-01  8.74D-01
 E= -1219.61147766194     Delta-E=       -0.000000011862 Rises=F Damp=F
 DIIS: error= 5.92D-07 at cycle  14 NSaved=  14.
 NSaved=14 IEnMin=14 EnMin= -1219.61147766194     IErMin=14 ErrMin= 5.92D-07
 ErrMax= 5.92D-07  0.00D+00 EMaxC= 1.00D-01 BMatC= 1.58D-09 BMatP= 1.40D-08
 IDIUse=1 WtCom= 1.00D+00 WtEn= 0.00D+00
 Coeff-Com: -0.690D-04 0.899D-04-0.301D-04-0.249D-05 0.193D-03-0.230D-04
 Coeff-Com: -0.241D-02-0.440D-02-0.657D-02-0.229D-01 0.441D-01 0.140D+00
 Coeff-Com:  0.328D+00 0.524D+00
 Coeff:     -0.690D-04 0.899D-04-0.301D-04-0.249D-05 0.193D-03-0.230D-04
 Coeff:     -0.241D-02-0.440D-02-0.657D-02-0.229D-01 0.441D-01 0.140D+00
 Coeff:      0.328D+00 0.524D+00
 Gap=     0.146 Goal=   None    Shift=    0.000
 RMSDP=1.97D-07 MaxDP=1.85D-05 DE=-1.19D-08 OVMax= 1.15D-05

 Cycle  15  Pass 1  IDiag  1:
 RMSU=  1.06D-07    CP:  1.00D+00  8.88D-01  6.12D-01  2.18D-01  7.56D-01
                    CP:  5.82D-01  9.51D-01  6.12D-01  8.76D-01  8.78D-01
                    CP:  8.81D-01  9.52D-01  8.96D-01  8.26D-01
 E= -1219.61147766327     Delta-E=       -0.000000001326 Rises=F Damp=F
 DIIS: error= 1.76D-07 at cycle  15 NSaved=  15.
 NSaved=15 IEnMin=15 EnMin= -1219.61147766327     IErMin=15 ErrMin= 1.76D-07
 ErrMax= 1.76D-07  0.00D+00 EMaxC= 1.00D-01 BMatC= 1.34D-10 BMatP= 1.58D-09
 IDIUse=1 WtCom= 1.00D+00 WtEn= 0.00D+00
 Coeff-Com: -0.173D-04 0.236D-04-0.390D-05-0.163D-05 0.490D-04-0.333D-04
 Coeff-Com: -0.484D-03-0.999D-03-0.253D-02-0.103D-01 0.487D-02 0.182D-01
 Coeff-Com:  0.990D-01 0.301D+00 0.591D+00
 Coeff:     -0.173D-04 0.236D-04-0.390D-05-0.163D-05 0.490D-04-0.333D-04
 Coeff:     -0.484D-03-0.999D-03-0.253D-02-0.103D-01 0.487D-02 0.182D-01
 Coeff:      0.990D-01 0.301D+00 0.591D+00
 Gap=     0.146 Goal=   None    Shift=    0.000
 RMSDP=7.52D-08 MaxDP=7.93D-06 DE=-1.33D-09 OVMax= 3.64D-06

 Cycle  16  Pass 1  IDiag  1:
 RMSU=  3.72D-08    CP:  1.00D+00  8.88D-01  6.12D-01  2.18D-01  7.56D-01
                    CP:  5.82D-01  9.52D-01  6.11D-01  8.76D-01  8.78D-01
                    CP:  8.84D-01  9.58D-01  9.07D-01  8.86D-01  8.20D-01
 E= -1219.61147766342     Delta-E=       -0.000000000155 Rises=F Damp=F
 DIIS: error= 5.90D-08 at cycle  16 NSaved=  16.
 NSaved=16 IEnMin=16 EnMin= -1219.61147766342     IErMin=16 ErrMin= 5.90D-08
 ErrMax= 5.90D-08  0.00D+00 EMaxC= 1.00D-01 BMatC= 1.25D-11 BMatP= 1.34D-10
 IDIUse=1 WtCom= 1.00D+00 WtEn= 0.00D+00
 Coeff-Com: -0.246D-05 0.373D-05 0.130D-05-0.585D-06 0.919D-05-0.181D-04
 Coeff-Com: -0.594D-04-0.161D-03-0.848D-03-0.369D-02-0.169D-02-0.497D-02
 Coeff-Com:  0.231D-01 0.112D+00 0.313D+00 0.564D+00
 Coeff:     -0.246D-05 0.373D-05 0.130D-05-0.585D-06 0.919D-05-0.181D-04
 Coeff:     -0.594D-04-0.161D-03-0.848D-03-0.369D-02-0.169D-02-0.497D-02
 Coeff:      0.231D-01 0.112D+00 0.313D+00 0.564D+00
 Gap=     0.146 Goal=   None    Shift=    0.000
 RMSDP=2.00D-08 MaxDP=2.90D-06 DE=-1.55D-10 OVMax= 1.11D-06

 Cycle  17  Pass 1  IDiag  1:
 RMSU=  1.43D-08    CP:  1.00D+00  8.88D-01  6.12D-01  2.18D-01  7.56D-01
                    CP:  5.82D-01  9.52D-01  6.11D-01  8.76D-01  8.78D-01
                    CP:  8.84D-01  9.60D-01  9.12D-01  8.92D-01  8.61D-01
                    CP:  9.02D-01
 E= -1219.61147766339     Delta-E=        0.000000000025 Rises=F Damp=F
 DIIS: error= 2.66D-08 at cycle  17 NSaved=  17.
 NSaved=17 IEnMin=16 EnMin= -1219.61147766342     IErMin=17 ErrMin= 2.66D-08
 ErrMax= 2.66D-08  0.00D+00 EMaxC= 1.00D-01 BMatC= 2.73D-12 BMatP= 1.25D-11
 IDIUse=1 WtCom= 1.00D+00 WtEn= 0.00D+00
 Coeff-Com:  0.168D-05-0.198D-05 0.152D-05-0.507D-07-0.326D-05-0.365D-05
 Coeff-Com:  0.462D-04 0.736D-04-0.104D-04-0.162D-03-0.139D-02-0.591D-02
 Coeff-Com: -0.380D-02 0.803D-02 0.620D-01 0.341D+00 0.600D+00
 Coeff:      0.168D-05-0.198D-05 0.152D-05-0.507D-07-0.326D-05-0.365D-05
 Coeff:      0.462D-04 0.736D-04-0.104D-04-0.162D-03-0.139D-02-0.591D-02
 Coeff:     -0.380D-02 0.803D-02 0.620D-01 0.341D+00 0.600D+00
 Gap=     0.146 Goal=   None    Shift=    0.000
 RMSDP=9.23D-09 MaxDP=1.36D-06 DE= 2.50D-11 OVMax= 5.01D-07

 Cycle  18  Pass 1  IDiag  1:
 RMSU=  5.66D-09    CP:  1.00D+00  8.88D-01  6.12D-01  2.18D-01  7.56D-01
                    CP:  5.82D-01  9.52D-01  6.11D-01  8.76D-01  8.78D-01
                    CP:  8.84D-01  9.60D-01  9.17D-01  9.01D-01  8.68D-01
                    CP:  9.97D-01  8.84D-01
 E= -1219.61147766343     Delta-E=       -0.000000000031 Rises=F Damp=F
 DIIS: error= 7.57D-09 at cycle  18 NSaved=  18.
 NSaved=18 IEnMin=18 EnMin= -1219.61147766343     IErMin=18 ErrMin= 7.57D-09
 ErrMax= 7.57D-09  0.00D+00 EMaxC= 1.00D-01 BMatC= 2.14D-13 BMatP= 2.73D-12
 IDIUse=1 WtCom= 1.00D+00 WtEn= 0.00D+00
 Coeff-Com:  0.123D-05-0.164D-05 0.882D-06-0.239D-07-0.224D-05-0.111D-06
 Coeff-Com:  0.305D-04 0.546D-04 0.652D-04 0.263D-03-0.578D-03-0.240D-02
 Coeff-Com: -0.401D-02-0.610D-02-0.349D-02 0.103D+00 0.267D+00 0.646D+00
 Coeff:      0.123D-05-0.164D-05 0.882D-06-0.239D-07-0.224D-05-0.111D-06
 Coeff:      0.305D-04 0.546D-04 0.652D-04 0.263D-03-0.578D-03-0.240D-02
 Coeff:     -0.401D-02-0.610D-02-0.349D-02 0.103D+00 0.267D+00 0.646D+00
 Gap=     0.146 Goal=   None    Shift=    0.000
 RMSDP=3.40D-09 MaxDP=4.26D-07 DE=-3.09D-11 OVMax= 1.77D-07

 SCF Done:  E(RB3LYP) =  -1219.61147766     A.U. after   18 cycles
            NFock= 18  Conv=0.34D-08     -V/T= 2.0039
 KE= 1.214883955441D+03 PE=-7.527498324867D+03 EE= 2.754671186758D+03
 Leave Link  502 at Tue Dec  9 23:39:30 2025, MaxMem=  1610612736 cpu:           36041.8 elap:            3004.5
 (Enter /opt/g16/l601.exe)
 Copying SCF densities to generalized density rwf, IOpCl= 0 IROHF=0.

 **********************************************************************

            Population analysis using the SCF Density.

 **********************************************************************

 Orbital symmetries:
       Occupied  (A) (A) (A) (A) (A) (A) (A) (A) (A) (A) (A) (A)
                 (A) (A) (A) (A) (A) (A) (A) (A) (A) (A) (A) (A)
                 (A) (A) (A) (A) (A) (A) (A) (A) (A) (A) (A) (A)
                 (A) (A) (A) (A) (A) (A) (A) (A) (A) (A) (A) (A)
                 (A) (A) (A) (A) (A) (A) (A) (A) (A) (A) (A) (A)
                 (A) (A) (A) (A) (A) (A) (A) (A) (A) (A) (A) (A)
                 (A) (A) (A) (A) (A) (A) (A) (A) (A) (A) (A) (A)
                 (A) (A) (A) (A) (A) (A) (A)
       Virtual   (A) (A) (A) (A) (A) (A) (A) (A) (A) (A) (A) (A)
                 (A) (A) (A) (A) (A) (A) (A) (A) (A) (A) (A) (A)
                 (A) (A) (A) (A) (A) (A) (A) (A) (A) (A) (A) (A)
                 (A) (A) (A) (A) (A) (A) (A) (A) (A) (A) (A) (A)
                 (A) (A) (A) (A) (A) (A) (A) (A) (A) (A) (A) (A)
                 (A) (A) (A) (A) (A) (A) (A) (A) (A) (A) (A) (A)
                 (A) (A) (A) (A) (A) (A) (A) (A) (A) (A) (A) (A)
                 (A) (A) (A) (A) (A) (A) (A) (A) (A) (A) (A) (A)
                 (A) (A) (A) (A) (A) (A) (A) (A) (A) (A) (A) (A)
                 (A) (A) (A) (A) (A) (A) (A) (A) (A) (A) (A) (A)
                 (A) (A) (A) (A) (A) (A) (A) (A) (A) (A) (A) (A)
                 (A) (A) (A) (A) (A) (A) (A) (A) (A) (A) (A) (A)
                 (A) (A) (A) (A) (A) (A) (A) (A) (A) (A) (A) (A)
                 (A) (A) (A) (A) (A) (A) (A) (A) (A) (A) (A) (A)
                 (A) (A) (A) (A) (A) (A) (A) (A) (A) (A) (A) (A)
                 (A) (A) (A) (A) (A) (A) (A) (A) (A) (A) (A) (A)
                 (A) (A) (A) (A) (A) (A) (A) (A) (A) (A) (A) (A)
                 (A) (A) (A) (A) (A) (A) (A) (A) (A) (A) (A) (A)
                 (A) (A) (A) (A) (A) (A) (A) (A) (A) (A) (A) (A)
                 (A) (A) (A) (A) (A) (A) (A) (A) (A) (A) (A) (A)
                 (A) (A) (A) (A) (A) (A) (A) (A) (A) (A) (A) (A)
                 (A) (A) (A) (A) (A) (A) (A) (A) (A) (A) (A) (A)
                 (A) (A) (A) (A) (A) (A) (A) (A) (A) (A) (A) (A)
                 (A) (A) (A) (A) (A) (A) (A) (A) (A) (A) (A) (A)
                 (A) (A) (A) (A) (A) (A) (A) (A) (A) (A) (A) (A)
                 (A) (A) (A) (A) (A) (A) (A) (A) (A) (A) (A) (A)
                 (A) (A) (A) (A) (A) (A) (A) (A) (A) (A) (A) (A)
                 (A) (A) (A) (A) (A) (A) (A) (A) (A) (A) (A) (A)
                 (A) (A) (A) (A) (A) (A) (A) (A) (A) (A) (A) (A)
                 (A) (A) (A) (A) (A) (A) (A) (A) (A) (A) (A) (A)
                 (A) (A) (A) (A) (A) (A) (A) (A) (A) (A) (A) (A)
                 (A) (A) (A) (A) (A) (A) (A) (A) (A) (A) (A) (A)
                 (A) (A) (A) (A) (A) (A) (A) (A) (A) (A) (A) (A)
                 (A) (A) (A) (A) (A) (A) (A) (A) (A) (A) (A) (A)
                 (A) (A) (A) (A) (A) (A) (A) (A) (A) (A) (A) (A)
                 (A) (A) (A) (A) (A) (A) (A) (A) (A) (A) (A) (A)
                 (A) (A) (A) (A) (A) (A) (A) (A) (A) (A) (A) (A)
                 (A) (A) (A) (A) (A) (A) (A) (A) (A) (A) (A) (A)
                 (A) (A) (A) (A) (A) (A) (A) (A) (A) (A) (A) (A)
                 (A) (A) (A) (A) (A) (A) (A) (A) (A) (A) (A) (A)
                 (A) (A) (A) (A) (A) (A) (A) (A) (A) (A) (A) (A)
                 (A) (A) (A) (A) (A) (A) (A) (A) (A) (A) (A) (A)
                 (A) (A) (A) (A) (A) (A) (A) (A) (A) (A) (A) (A)
                 (A) (A) (A) (A) (A) (A) (A) (A) (A) (A) (A) (A)
                 (A) (A) (A) (A) (A) (A) (A) (A) (A) (A) (A) (A)
                 (A) (A) (A) (A) (A) (A) (A) (A) (A) (A) (A) (A)
                 (A) (A) (A) (A) (A) (A) (A) (A) (A) (A) (A) (A)
                 (A) (A) (A) (A) (A) (A) (A) (A) (A) (A) (A) (A)
                 (A) (A) (A) (A) (A) (A) (A) (A) (A) (A) (A) (A)
                 (A) (A) (A) (A) (A) (A) (A) (A) (A) (A) (A) (A)
                 (A) (A) (A) (A) (A) (A) (A) (A) (A) (A) (A) (A)
                 (A) (A) (A) (A) (A) (A) (A) (A) (A) (A) (A) (A)
                 (A) (A) (A) (A) (A) (A) (A) (A) (A) (A) (A) (A)
                 (A) (A) (A) (A) (A) (A) (A) (A) (A) (A) (A) (A)
                 (A) (A) (A) (A) (A) (A) (A) (A) (A) (A) (A) (A)
                 (A) (A) (A) (A) (A) (A) (A) (A) (A) (A) (A) (A)
                 (A) (A) (A) (A) (A) (A) (A) (A) (A) (A) (A) (A)
                 (A) (A) (A) (A) (A) (A) (A) (A) (A) (A) (A) (A)
                 (A) (A) (A) (A) (A) (A) (A) (A) (A) (A) (A) (A)
                 (A) (A) (A) (A) (A) (A) (A) (A) (A) (A) (A) (A)
                 (A) (A) (A) (A) (A) (A) (A) (A) (A) (A) (A) (A)
                 (A) (A) (A) (A) (A) (A) (A) (A) (A) (A) (A) (A)
                 (A) (A) (A) (A) (A) (A) (A) (A) (A) (A) (A) (A)
                 (A) (A) (A) (A) (A) (A) (A) (A) (A) (A) (A) (A)
                 (A) (A) (A) (A) (A) (A) (A) (A) (A) (A) (A) (A)
                 (A) (A) (A) (A) (A) (A) (A) (A) (A) (A) (A) (A)
                 (A) (A) (A) (A) (A) (A) (A) (A) (A) (A) (A) (A)
                 (A) (A) (A) (A) (A) (A) (A) (A)
 The electronic state is 1-A.
 Alpha  occ. eigenvalues --  -19.17970 -19.17673 -19.14361 -19.12651 -19.12234
 Alpha  occ. eigenvalues --  -19.11051 -14.50820 -14.38274 -10.32964 -10.32502
 Alpha  occ. eigenvalues --  -10.25676 -10.25360 -10.23295 -10.22105 -10.22041
 Alpha  occ. eigenvalues --  -10.21337 -10.20877 -10.20873 -10.20134 -10.19334
 Alpha  occ. eigenvalues --  -10.19260 -10.18954 -10.18848 -10.17396 -10.17341
 Alpha  occ. eigenvalues --   -1.20042  -1.10138  -1.09537  -1.03794  -1.01134
 Alpha  occ. eigenvalues --   -1.00699  -0.97056  -0.88821  -0.83703  -0.82905
 Alpha  occ. eigenvalues --   -0.79980  -0.77602  -0.74599  -0.73559  -0.72537
 Alpha  occ. eigenvalues --   -0.71167  -0.70043  -0.67107  -0.62627  -0.62146
 Alpha  occ. eigenvalues --   -0.61555  -0.60952  -0.57624  -0.55543  -0.54960
 Alpha  occ. eigenvalues --   -0.53061  -0.52184  -0.51167  -0.50874  -0.50050
 Alpha  occ. eigenvalues --   -0.49567  -0.49145  -0.49082  -0.48695  -0.48197
 Alpha  occ. eigenvalues --   -0.46862  -0.46246  -0.46153  -0.44632  -0.44196
 Alpha  occ. eigenvalues --   -0.43557  -0.43125  -0.42494  -0.42328  -0.41624
 Alpha  occ. eigenvalues --   -0.40156  -0.39571  -0.39456  -0.38868  -0.38061
 Alpha  occ. eigenvalues --   -0.37710  -0.36795  -0.36239  -0.35986  -0.35406
 Alpha  occ. eigenvalues --   -0.32828  -0.30981  -0.30528  -0.29098  -0.28823
 Alpha  occ. eigenvalues --   -0.28391  -0.27604  -0.26550  -0.26218  -0.24704
 Alpha  occ. eigenvalues --   -0.21937
 Alpha virt. eigenvalues --   -0.07370  -0.07226  -0.05277  -0.03055  -0.02489
 Alpha virt. eigenvalues --   -0.00908  -0.00482  -0.00183   0.00328   0.01050
 Alpha virt. eigenvalues --    0.01071   0.01683   0.02052   0.02284   0.02874
 Alpha virt. eigenvalues --    0.03271   0.03470   0.03900   0.04056   0.04195
 Alpha virt. eigenvalues --    0.04444   0.04618   0.05177   0.05305   0.06083
 Alpha virt. eigenvalues --    0.06143   0.06752   0.06800   0.07330   0.07906
 Alpha virt. eigenvalues --    0.08337   0.08969   0.09384   0.09495   0.09737
 Alpha virt. eigenvalues --    0.09934   0.10245   0.10497   0.10667   0.10777
 Alpha virt. eigenvalues --    0.11088   0.11149   0.11443   0.11587   0.11933
 Alpha virt. eigenvalues --    0.12249   0.12438   0.12554   0.12880   0.13057
 Alpha virt. eigenvalues --    0.13178   0.13510   0.13629   0.13936   0.14235
 Alpha virt. eigenvalues --    0.14403   0.14502   0.14754   0.14969   0.15108
 Alpha virt. eigenvalues --    0.15435   0.15755   0.15882   0.16204   0.16744
 Alpha virt. eigenvalues --    0.16842   0.17020   0.17218   0.17510   0.17782
 Alpha virt. eigenvalues --    0.17960   0.18014   0.18745   0.18921   0.19185
 Alpha virt. eigenvalues --    0.19500   0.19681   0.20018   0.20145   0.20277
 Alpha virt. eigenvalues --    0.20740   0.21342   0.21433   0.21612   0.21863
 Alpha virt. eigenvalues --    0.22059   0.22660   0.22853   0.23055   0.23315
 Alpha virt. eigenvalues --    0.23377   0.24025   0.24198   0.24588   0.24673
 Alpha virt. eigenvalues --    0.24989   0.25334   0.25899   0.26357   0.26527
 Alpha virt. eigenvalues --    0.26761   0.26778   0.27483   0.27595   0.27657
 Alpha virt. eigenvalues --    0.27949   0.28191   0.28658   0.29218   0.29365
 Alpha virt. eigenvalues --    0.29527   0.29696   0.30154   0.30571   0.30830
 Alpha virt. eigenvalues --    0.31079   0.31375   0.31523   0.31630   0.31975
 Alpha virt. eigenvalues --    0.32268   0.32425   0.32907   0.33030   0.33319
 Alpha virt. eigenvalues --    0.33564   0.33853   0.33964   0.34545   0.34842
 Alpha virt. eigenvalues --    0.35019   0.35712   0.35802   0.36271   0.36360
 Alpha virt. eigenvalues --    0.36607   0.37160   0.37416   0.37582   0.37739
 Alpha virt. eigenvalues --    0.38036   0.38540   0.38944   0.39064   0.39352
 Alpha virt. eigenvalues --    0.39484   0.40076   0.40417   0.40805   0.40999
 Alpha virt. eigenvalues --    0.41371   0.42017   0.42362   0.42675   0.43171
 Alpha virt. eigenvalues --    0.43504   0.43924   0.44342   0.44427   0.45117
[...]
 .00000830,-0.00004222,-0.00000006,-0.00001821,-0.00007977,0.00002431,-
 0.00002943,-0.00073589,-0.00199360,0.00082155,0.00108445,0.00090439,0.
 00065886,-0.00001173,-0.00000956,-0.00009482,0.00000851,-0.00001872,0.
 00000607,0.00004330,0.00001496,-0.00001294,0.00001710,0.00000433,0.000
 06625,-0.09961280,0.08056790,-0.16006803,-0.01684032,0.01354853,-0.017
 21645,0.00531756,-0.00611423,0.00819862,0.11330945,-0.08790468,0.17066
 371,0.00111578,0.00751655,-0.00206031,-0.00408805,0.00045248,-0.021815
 15,-0.08604884,0.01342149,-0.00385352,0.01098270,-0.01178650,0.0026781
 6,0.00313765,0.00563724,0.00605208,-0.00293239,0.00225332,0.00080988,0
 .00034753,0.00027090,-0.00103034,-0.00477452,0.00044425,0.00299622,0.0
 0062044,0.00012439,0.00124242,-0.00099385,-0.00040994,0.00001521,-0.00
 045842,-0.00268009,-0.00127749,-0.00025452,0.00043204,-0.00007250,-0.0
 0048020,-0.00177742,0.00201297,0.00002067,-0.00071243,0.00013901,0.000
 59097,0.00273026,-0.00056817,-0.00341125,0.00514455,-0.00098454,0.0031
 5090,-0.00313987,0.00197973,0.00286441,-0.00073923,-0.00057390,0.00379
 225,0.00003533,0.00167919,-0.00520057,-0.00001752,0.00079336,-0.001589
 01,-0.00067043,-0.00107523,-0.00064359,-0.00062695,0.00006285,0.000149
 96,-0.00005257,0.00000357,-0.00007253,0.00010615,-0.00000202,-0.000108
 40,0.00009539,0.00004301,0.00104746,-0.00014332,0.00025404,-0.00012481
 ,0.00002156,-0.00001471,0.00000632,-0.00008261,-0.00010022,-0.00020665
 ,-0.00012937,0.00013972,-0.00145641,-0.00163175,0.00044247,-0.00008320
 ,0.00002864,-0.00010194,0.00007247,-0.00025576,-0.00026790,-0.00003378
 ,0.00002497,-0.00006894,0.00016752,-0.00004987,0.00003899,0.00005760,-
 0.00011365,0.00013448,0.00016077,-0.00011567,-0.00003316,0.00003193,-0
 .00010277,-0.00000303,-0.00003742,-0.00006881,0.00007334,-0.00002742,-
 0.00008793,0.00001314,0.80495832,0.00813953,0.00053996,-0.00008807,0.0
 0262413,-0.00386783,0.02509272,0.01625170,-0.10036877,-0.00060109,-0.0
 1176484,0.01123247,-0.01214507,0.00635093,0.00199881,-0.00494062,0.000
 49499,-0.00234299,-0.00056384,0.00048023,0.00051458,0.00109198,-0.0008
 2751,-0.00262376,-0.00118126,-0.00003333,0.00058629,-0.00135945,-0.000
 78358,-0.00073858,0.00006266,-0.00284264,-0.00159133,0.00006157,-0.000
 30835,-0.00039343,-0.00041792,-0.00008497,0.00069809,0.00032711,0.0003
 3890,-0.00027887,0.00018904,-0.00016820,-0.00029346,0.00015779,0.00085
 331,-0.00006947,-0.00023293,-0.00066172,-0.00002412,0.00001389,-0.0007
 4959,-0.00017003,0.00022006,0.00125046,-0.00364309,0.00100212,-0.00040
 835,-0.00009985,-0.00045803,0.00068684,0.00172833,0.00014942,0.0001773
 4,0.00027180,-0.00009061,-0.00004086,-0.00000646,0.00000217,-0.0000102
 3,-0.00003757,-0.00001209,0.00000453,-0.00002829,0.00001900,-0.0006901
 2,-0.00009693,-0.00027199,0.00003304,0.00005507,0.00000006,0.00003300,
 -0.00002680,0.00003993,0.00005611,-0.00001351,-0.00000937,-0.00029848,
 0.00018262,-0.00014562,0.00001065,-0.00003958,0.00002476,0.00000269,0.
 00004059,-0.00005926,-0.00001877,-0.00000326,-0.00001893,-0.00003105,0
 .00001870,-0.00000117,-0.00004441,0.00001583,-0.00004424,0.00000108,0.
 00004338,0.00002678,0.00000656,0.00003944,-0.00000577,-0.00000880,0.00
 000795,-0.00000023,-0.00002383,0.00003728,-0.00003598,-0.17707754,0.31
 002041,0.00108324,0.00057482,0.00591146,-0.01786171,0.01428665,-0.0047
 4774,-0.00051428,-0.00551893,-0.10584230,0.00209890,0.00139951,-0.0485
 2443,0.00562971,-0.00523694,0.00329831,0.00041992,-0.00030754,0.000908
 73,0.00055222,-0.00071597,0.00108487,-0.00206087,0.00033369,0.00098239
 ,-0.00051879,0.00032409,-0.00006235,-0.00019599,-0.00022053,0.00003496
 ,-0.00043246,0.00187246,0.00185087,-0.00042905,0.00044720,-0.00263823,
 0.00009377,0.00031966,-0.00192920,0.00011453,0.00000508,-0.00031143,0.
 00014932,-0.00038312,-0.00009250,0.00054231,-0.00391875,0.00172265,-0.
 00126979,0.00239296,-0.00363141,-0.00046644,0.00096596,0.00009528,0.00
 344112,-0.00274909,0.00290479,-0.00095747,0.00278390,-0.00441819,-0.00
 062283,0.00156101,-0.00020266,0.00012309,-0.00008619,0.00030932,-0.000
 02314,0.00004875,-0.00002580,0.00004787,-0.00002502,-0.00001565,0.0000
 9456,0.00001905,-0.00009635,-0.00013784,-0.00012994,0.00026987,-0.0000
 1411,0.00005555,-0.00004141,0.00001092,-0.00010161,-0.00011257,0.00001
 242,-0.00007305,0.00004810,0.00012410,0.00034983,-0.00084786,-0.000066
 16,0.00008724,0.00013785,-0.00016180,0.00007405,0.00036880,-0.00000952
 ,-0.00002628,0.00012927,-0.00004198,-0.00003315,-0.00005409,0.00005464
 ,0.00009147,0.00001390,-0.00014240,0.00015790,0.00028377,0.00005386,-0
 .00000056,-0.00004153,0.00001768,-0.00000929,0.00013310,-0.00008530,0.
 00000994,0.00002205,-0.12192808,-0.03966166,0.66097065,-0.00059837,0.0
 0079923,-0.00060643,0.00320919,-0.00191951,-0.00410419,-0.03036719,0.0
 2244972,-0.02709625,-0.00333100,0.00368562,0.00624660,-0.00004829,-0.0
 0002931,-0.00183346,0.00020082,-0.00052049,0.00008180,-0.00014144,0.00
 008358,-0.00059365,0.00137295,-0.00160456,-0.00163691,-0.00002247,-0.0
 0001269,-0.00029639,0.00020356,-0.00013342,-0.00005096,-0.00069164,-0.
 00009844,0.00098331,0.00068185,-0.00052996,0.00014331,0.00025802,0.001
 32591,-0.00104712,-0.00020386,0.00039114,-0.00020577,-0.00045889,-0.00
 194214,0.00048408,0.00206662,-0.00271497,0.00048222,-0.00190802,0.0015
 1556,-0.00130946,-0.00164656,0.00029243,0.00038860,-0.00315166,0.00056
 765,-0.00153067,0.00335410,-0.00164597,0.00002649,0.00112690,0.0000556
 5,0.00073234,0.00039989,0.00040668,-0.00004354,-0.00009364,0.00002732,
 -0.00000425,0.00003330,-0.00006407,-0.00001187,0.00006296,-0.00005063,
 -0.00001525,-0.00065069,0.00010902,-0.00016695,0.00008488,-0.00002164,
 0.00001286,-0.00000537,0.00006842,0.00007705,0.00013355,0.00009808,-0.
 00010298,0.00107387,0.00111655,-0.00019110,0.00007400,-0.00003498,0.00
 004503,-0.00001168,0.00017199,0.00012902,0.00002317,-0.00001275,0.0000
 2681,-0.00010812,0.00004018,-0.00001978,-0.00004789,0.00006097,-0.0000
 9493,-0.00008446,0.00006797,0.00004557,-0.00002725,0.00007225,0.000007
 68,0.00001861,0.00003509,-0.00006331,0.00002382,0.00003957,0.00000059,
 -0.43573991,0.13292338,-0.06533369,0.56603048,-0.00146824,-0.00097991,
 0.00092660,-0.00010722,0.00277063,0.00022662,0.02342529,0.00931271,0.0
 1384852,0.00325478,-0.00194307,-0.00281263,-0.00143636,0.00032583,0.00
 068415,0.00031967,0.00003304,-0.00012053,-0.00016138,-0.00025578,0.000
 20975,-0.00117284,0.00138254,0.00073273,0.00000529,-0.00007961,0.00025
 920,0.00004736,0.00024660,-0.00003154,0.00033133,0.00058819,0.00041135
 ,0.00007119,0.00001960,0.00002301,-0.00002413,-0.00030256,-0.00007672,
 -0.00006399,0.00007760,-0.00003672,-0.00002707,0.00037137,-0.00013626,
 -0.00088875,0.00104543,-0.00003488,0.00093757,-0.00059422,0.00037125,0
 .00080100,-0.00008886,-0.00020523,0.00023220,0.00062408,-0.00001588,0.
 00014702,-0.00036483,0.00013287,-0.00033188,-0.00040199,-0.00014115,-0
 .00018963,-0.00023263,0.00005792,0.00003974,-0.00000591,-0.00000032,-0
 .00000836,0.00003087,0.00000631,-0.00001891,0.00002567,-0.00000346,0.0
 0023267,0.00004107,0.00008861,-0.00001325,-0.00002815,-0.00000069,-0.0
 0001407,0.00001497,-0.00001552,-0.00001531,0.00002144,0.00000089,-0.00
 003801,-0.00026094,0.00003508,-0.00002250,0.00002381,-0.00001621,-0.00
 000003,-0.00001559,0.00000600,0.00000031,0.00000419,0.00000066,0.00002
 346,-0.00000944,0.00000059,0.00001437,-0.00001500,0.00003350,-0.000012
 54,-0.00001312,0.00000454,0.00000240,-0.00001853,-0.00000360,0.0000005
 5,-0.00001107,0.00001288,0.00000503,-0.00001595,0.00001802,0.13097409,
 -0.12679614,0.03301367,-0.18171226,0.09353973,-0.00086735,0.00202160,-
 0.00173675,0.00175115,-0.00369231,-0.00609217,-0.04164007,0.02044990,-
 0.00596508,-0.00352687,-0.00131761,-0.00706861,-0.00023946,0.00102786,
 0.00154060,-0.00104876,0.00136539,-0.00044098,0.00000171,0.00030127,-0
 .00083375,-0.00291986,0.00106447,-0.00339561,-0.00001234,-0.00018340,-
 0.00010984,-0.00018250,0.00005573,-0.00009930,0.00049066,-0.00119432,-
 0.00036057,0.00017828,-0.00014091,0.00067278,-0.00006101,0.00008191,0.
 00037056,-0.00003299,0.00005838,0.00006314,-0.00010192,-0.00025272,0.0
 0014166,0.00028378,0.00086168,-0.00051226,0.00010843,-0.00052536,0.000
 89820,-0.00020242,-0.00027910,0.00006699,-0.00143462,0.00055896,-0.001
 06533,0.00101873,-0.00083219,0.00101878,0.00047447,-0.00018711,0.00028
 389,0.00004781,0.00011867,-0.00011873,-0.00001389,-0.00000992,0.000007
 00,-0.00000966,-0.00000759,0.00000483,-0.00001575,-0.00002015,0.000028
 09,-0.00019108,0.00004719,-0.00016690,0.00002617,-0.00001642,0.0000165
 4,-0.00000314,0.00004719,0.00006001,0.00002940,0.00003859,-0.00004071,
 0.00013378,0.00011608,0.00020315,0.00003766,-0.00004342,-0.00003795,0.
 00004324,0.00000814,-0.00006192,0.00000842,0.00000598,-0.00003884,-0.0
 0001718,0.00002230,0.00001169,-0.00002029,-0.00001832,-0.00002358,0.00
 001837,-0.00002802,-0.00007760,-0.00002158,0.00001791,0.00001442,-0.00
 000379,0.00000682,-0.00005389,0.00003018,0.00000782,-0.00001103,-0.068
 10078,0.03518896,-0.14479646,0.05326951,-0.03366209,0.13846309,0.00056
 140,-0.00011352,0.00178562,-0.00278074,0.00221566,0.00010714,0.0078759
 5,-0.00118237,0.01945556,0.00194794,0.00116531,-0.00011773,0.00050974,
 -0.00042158,-0.00018153,0.00060609,-0.00059285,-0.00038687,0.00001703,
 -0.00011184,0.00022025,-0.00005294,-0.00113649,-0.00112074,-0.00017481
 ,-0.00018610,0.00003895,-0.00000146,-0.00024482,0.00001164,-0.00081603
 ,0.00358663,0.00044320,-0.00003776,-0.00023777,-0.00122203,0.00018498,
 0.00101007,-0.00106700,-0.00008216,0.00053135,-0.00029356,-0.00019835,
 -0.00150414,0.00030317,0.00182285,-0.00370775,0.00066557,-0.00342126,0
 .00217669,-0.00256396,-0.00172314,0.00063525,0.00046562,-0.00130782,-0
 .00047604,-0.00031372,0.00143586,0.00011870,-0.00027344,0.00076070,0.0
 0065285,0.00031960,0.00036355,0.00034923,-0.00002003,-0.00008140,0.000
 03144,-0.00000266,0.00004803,-0.00006091,-0.00000009,0.00006247,-0.000
 05750,-0.00003428,-0.00051622,0.00003642,-0.00011383,0.00005271,0.0000
 0772,0.00000759,0.00001089,0.00001513,0.00003547,0.00008740,0.00003122
 ,-0.00004028,0.00088938,0.00095528,-0.00030197,0.00003616,0.00000036,0
 .00006516,-0.00007276,0.00012750,0.00021144,0.00001370,-0.00001699,0.0
 0005414,-0.00009704,0.00002272,-0.00003516,-0.00001093,0.00006935,-0.0
 0006660,-0.00014413,0.00010342,0.00007217,0.00000024,0.00005772,-0.000
 00292,0.00002102,0.00001801,-0.00000692,-0.00000667,0.00005280,0.00000
 332,-0.28091368,0.02430278,0.19551352,-0.10211906,0.02700537,0.0632201
 7,0.37720649,-0.00121224,-0.00052545,-0.00017523,0.00104737,-0.0008324
 7,-0.00277882,-0.00508979,0.02170808,0.00600323,0.00262030,-0.00119523
 ,0.00268129,-0.00183107,0.00062166,0.00044932,0.00007649,0.00022021,-0
 .00012262,-0.00006822,-0.00004434,-0.00016447,0.00010925,0.00042619,-0
 .00012918,0.00002474,-0.00017660,0.00033425,0.00017963,0.00015941,0.00
 003396,0.00328706,-0.00400399,-0.00040224,0.00066556,-0.00020283,0.001
 50483,-0.00008430,-0.00020870,0.00077497,-0.00092776,-0.00012568,-0.00
 019646,0.00046520,0.00027849,0.00005590,-0.00013438,-0.00198762,0.0003
 0560,-0.00045790,0.00145205,-0.00052877,0.00004436,0.00058491,-0.00004
 410,-0.00066174,0.00149240,-0.00054532,-0.00077786,-0.00257754,0.00135
 872,-0.00035763,-0.00110329,-0.00022753,-0.00001803,-0.00015535,0.0000
 7385,0.00000907,0.00002682,-0.00001050,0.00003179,0.00001923,0.0000122
 7,0.00002747,0.00000148,-0.00003699,0.00040416,0.00006485,0.00013581,-
 0.00002433,-0.00004078,-0.00000013,-0.00002365,0.00003051,-0.00001090,
 -0.00004018,0.00001660,-0.00000385,0.00040053,0.00004269,0.00030839,-0
 .00000291,0.00003962,-0.00002725,0.00004743,-0.00013655,-0.00010834,0.
 00001324,0.00000340,0.00002478,0.00007051,-0.00004267,0.00001868,0.000
 03138,-0.00001090,0.00001111,0.00014316,-0.00009555,-0.00010617,-0.000
 01123,-0.00007194,0.00001325,-0.00000263,0.00000527,-0.00001100,0.0000
 2288,-0.00006095,0.00002598,0.02723131,-0.08313802,0.00355092,0.028891
 42,0.02139723,-0.02220148,-0.05550647,0.05158651,-0.00116668,-0.000485
 71,0.00025409,0.00385322,-0.00245464,-0.00067214,0.03424978,0.00149544
 ,-0.04912430,-0.00494195,0.00556318,-0.00228011,-0.00169907,-0.0012674
 6,-0.00262344,0.00079177,-0.00060509,-0.00073513,-0.00015641,0.0001927
 2,-0.00045983,0.00101409,0.00110880,0.00066664,-0.00021317,0.00005912,
 -0.00086575,0.00012163,0.00031926,-0.00005757,0.00044762,0.00115817,-0
 .00121682,-0.00018517,0.00016691,0.00101864,-0.00028347,-0.00042280,0.
 00097184,0.00010400,0.00013680,0.00022539,0.00000437,0.00055907,-0.000
 06133,-0.00060730,0.00248736,-0.00114771,0.00029229,-0.00149695,0.0020
 1158,0.00038444,-0.00050999,-0.00003642,-0.00175822,0.00202392,-0.0016
 3785,-0.00016933,-0.00238904,0.00254457,0.00004190,-0.00117862,0.00002
 038,-0.00013522,0.00000918,-0.00021048,0.00003005,-0.00003400,0.000019
 77,-0.00003196,0.00002381,0.00001983,-0.00007695,-0.00001410,0.0000617
 8,0.00031273,0.00005922,-0.00010787,-0.00001187,-0.00002966,0.00002309
 ,0.00000680,0.00004972,0.00004203,-0.00004203,0.00001813,0.00001146,-0
 .00024144,-0.00040896,0.00046321,0.00002553,-0.00004011,-0.00008460,0.
 00007323,-0.00006294,-0.00019748,0.00000126,0.00001829,-0.00007573,0.0
 0003200,0.00001542,0.00002651,-0.00001620,-0.00006391,0.00001392,0.000
 05497,-0.00009124,-0.00017027,-0.00002132,0.00000046,0.00002361,-0.000
 01435,-0.00000082,-0.00006503,0.00004839,-0.00000020,-0.00000844,0.201
 27268,-0.00120465,-0.36352939,0.04341571,-0.01335847,0.02928944,-0.272
 04416,0.00549493,0.38944446,-0.00165710,0.00250449,0.00187070,0.002876
 03,-0.00532240,0.01545129,0.00053967,-0.00024918,-0.00008440,-0.000164
 55,0.00007692,0.00028074,-0.00021154,0.00021286,-0.00018162,0.00070513
 ,-0.00029531,0.00047218,-0.00009652,-0.00012352,-0.00005154,0.00001223
 ,0.00003278,0.00004988,-0.00003554,0.00001188,-0.00004161,-0.00012959,
 0.00010878,0.00020798,-0.05516968,0.01429904,-0.04080733,0.00351877,-0
 .00439876,0.01203816,-0.01169955,0.01408994,-0.02910283,-0.00269552,-0
 .00201031,-0.00062750,-0.00480499,-0.00351994,-0.00069314,-0.00083388,
 0.00248050,-0.00170697,0.00101879,-0.00074552,0.00080139,0.00021466,0.
 00015985,0.00018839,0.00052178,-0.00255293,0.00153217,-0.00076578,0.00
 065622,-0.00086569,0.00020654,0.00074127,-0.00014940,0.00003478,0.0000
 0297,-0.00006352,0.00003545,0.00000713,-0.00001305,-0.00001529,-0.0000
 0745,-0.00000615,-0.00002612,-0.00002854,0.00002080,-0.00002353,-0.000
 03653,-0.00005989,0.00000905,0.00002954,-0.00000141,-0.00000491,-0.000
 03606,-0.00001754,-0.00000465,-0.00000043,0.00003785,0.00136716,0.0010
 1058,-0.00009651,0.00008517,-0.00000885,-0.00004683,-0.00046001,0.0012
 9393,0.00097230,0.00013573,-0.00001008,0.00000251,-0.00044991,0.000196
 57,-0.00016447,-0.00014434,0.00010088,0.00000361,0.00053029,-0.0004248
 8,-0.00056182,-0.00000965,-0.00028112,0.00001456,0.00005210,0.00005383
 ,0.00006152,0.00000350,-0.00014886,0.00000964,-0.00359625,0.00185497,0
 .00309605,0.00102491,-0.00014397,-0.00050458,0.00004376,0.00138800,-0.
 00276218,0.07006337,0.00294335,-0.00259577,-0.00231343,-0.00299710,0.0
 0746558,-0.01993122,-0.00036935,0.00043503,0.00071554,0.00017394,-0.00
 021673,-0.00020463,0.00021577,-0.00011769,0.00022263,-0.00055226,0.000
 44170,-0.00077415,-0.00004636,0.00002481,0.00013806,-0.00000707,-0.000
 05300,-0.00008474,0.00004325,-0.00002836,0.00005758,0.00006775,-0.0002
 3968,-0.00028649,0.01364804,-0.08580647,0.09945049,0.00338806,-0.01882
 130,0.02486350,0.00401585,0.00060944,-0.00111379,-0.00455923,-0.002305
 58,-0.00012898,-0.00127863,-0.00044845,0.00021471,-0.00179475,0.001026
 64,-0.00114611,0.00035175,-0.00028787,0.00056506,0.00048875,-0.0003015
 5,-0.00002435,0.00141965,-0.00137717,0.00142502,0.00031390,0.00126531,
 -0.00075088,0.00037033,0.00019077,-0.00000746,-0.00003982,0.00003609,-
 0.00000323,0.00001259,-0.00001183,0.00000544,-0.00000042,0.00000231,-0
 .00002784,-0.00002013,0.00001222,0.00001836,-0.00005145,0.00005214,-0.
 00006503,0.00002767,0.00003377,0.00001631,-0.00003747,-0.00001338,-0.0
 0002506,-0.00000439,-0.00001318,-0.00000112,0.00100609,0.00065247,0.00
 034217,-0.00000621,0.00007878,0.00012202,-0.00013312,0.00021907,0.0004
 6005,0.00000974,0.00002674,-0.00005628,-0.00018715,0.00007769,-0.00003
 061,-0.00000674,-0.00001240,-0.00004188,0.00096470,-0.00065224,-0.0003
 9953,-0.00001357,-0.00027127,0.00005342,0.00003579,0.00014048,-0.00000
 501,0.00001890,-0.00027882,-0.00004588,0.00552705,-0.00133946,-0.00552
 774,-0.00224761,0.00053670,0.00113967,0.00027818,-0.00344114,0.0051594
 5,-0.02096827,0.10530556,0.00263602,-0.00315105,-0.00173825,-0.0013205
 5,0.00560370,-0.02494472,-0.00068967,0.00095057,0.00064615,-0.00004239
 ,-0.00008171,-0.00048144,0.00013288,-0.00016031,0.00024884,-0.00079138
 ,0.00058859,-0.00072884,-0.00000674,0.00009520,0.00012262,0.00000356,0
 .00002921,0.00004201,0.00003266,-0.00002579,0.00001615,0.00018272,-0.0
 0012775,-0.00023486,-0.03695233,0.09356494,-0.27673959,0.00089073,0.00
 134739,0.00513725,-0.00311534,0.00090698,0.00065880,-0.00070904,-0.000
 68116,-0.00001361,0.00016167,0.00056943,-0.00015883,-0.00035084,0.0008
 9731,0.00091889,0.00084528,-0.00020324,-0.00002680,0.00035131,-0.00002
 378,-0.00023815,-0.00045155,0.00030737,0.00093714,-0.00076718,-0.00083
 184,-0.00042989,-0.00014594,-0.00043855,-0.00023632,-0.00004246,-0.000
 12221,0.00005048,0.00002192,0.00000330,-0.00000954,-0.00001522,0.00001
 334,0.00000151,0.00000951,0.00003012,0.00000409,0.00017000,0.00000408,
 0.00010460,-0.00000636,-0.00001778,-0.00000675,-0.00003874,-0.00000585
 ,-0.00001026,-0.00001729,0.00002437,0.00000212,0.00009032,-0.00070151,
 0.00056562,-0.00004725,0.00006042,0.00001287,0.00013412,-0.00007711,-0
 .00026035,0.00000680,-0.00000476,-0.00000452,0.00011312,-0.00005800,0.
 00001713,-0.00002081,-0.00001202,0.00000890,0.00021443,-0.00024131,-0.
 00024051,-0.00001879,-0.00012513,-0.00001271,0.00000689,0.00002144,-0.
 00000804,0.00002179,-0.00005920,-0.00000304,0.00105541,-0.00012016,0.0
 0048059,-0.00023970,-0.00043282,-0.00004702,-0.00278983,0.00465931,-0.
 00178454,0.04149827,-0.10197404,0.29838284\\0.00000323,-0.00001078,0.0
 0000168,-0.00000182,0.00002639,-0.00000654,-0.00000631,-0.00000056,-0.
 00000545,-0.00000558,0.00000021,0.00000214,0.00000816,0.00000133,0.000
 00307,-0.00000584,-0.00000010,0.00000031,0.00000274,0.00000131,-0.0000
 0109,0.00000098,-0.00000140,-0.00000263,-0.00000254,-0.00000256,-0.000
 00083,0.00000210,0.00000347,-0.00000083,0.00000688,-0.00000742,-0.0000
 0716,-0.00000767,-0.00000186,-0.00000170,0.00000003,0.00000133,0.00000
 653,0.00001432,0.00000173,0.00001730,-0.00000367,-0.00001417,-0.000003
 14,0.00000331,-0.00000819,-0.00002483,0.00000409,0.00000171,0.00000797
 ,-0.00000669,0.00000623,0.00000761,0.00001571,-0.00000613,0.00000283,-
 0.00001568,-0.00000751,-0.00000272,-0.00001037,0.00000421,0.00000059,0
 .00000110,-0.00000156,0.00000197,-0.00000066,0.00000103,-0.00000128,0.
 00000023,-0.00000084,-0.00000308,-0.00000044,-0.00000032,-0.00000005,0
 .00000746,0.00000099,0.00000357,-0.00000049,0.00000114,0.00000051,-0.0
 0000160,-0.00000026,-0.00000035,0.00000163,0.00000013,0.00000021,-0.00
 000248,-0.00000403,-0.00000727,-0.00000266,0.00000612,0.00000203,0.000
 00211,0.00000318,-0.00000373,-0.00000113,-0.00000095,0.00000111,-0.000
 00438,0.00000184,0.00000284,0.00000174,-0.00000036,0.00000082,-0.00000
 049,-0.00000265,-0.00000682,-0.00000034,0.00000305,0.00000404,-0.00000
 028,0.00000039,0.00000180,-0.00000099,0.00000060,-0.00000039,0.0000429
 4,-0.00001300,-0.00000324,-0.00001696,0.00001090,-0.00000422,-0.000019
 93,0.00001088,0.00001284,0.00000024,-0.00000352,0.00000557\\\@
 The archive entry for this job was punched.


 IF YOU GET CONFUSED, LOGIC OUT YOUR DILEMMA

           --  PICKER X-RAY CORP.    DIGITAL PRINTER MANUAL CA. 1964
 Job cpu time:       2 days 14 hours 17 minutes 24.3 seconds.
 Elapsed time:       0 days  5 hours 11 minutes 27.9 seconds.
 File lengths (MBytes):  RWF=   2725 Int=      0 D2E=      0 Chk=     66 Scr=      1
 Normal termination of Gaussian 16 at Wed Dec 10 10:51:11 2025.
