 Entering Gaussian System, Link 0=g16
 Input=Nifedipine_DFT_B3LYP_6311pp2d3p_OptFreq_Raman_Hirshfeld_180_NO2.gjf
 Output=Nifedipine_DFT_B3LYP_6311pp2d3p_OptFreq_Raman_Hirshfeld_180_NO2.log
 Initial command:
 /Apps/Gaussian/G16//g16/l1.exe "/CompChemNFS/GaussianScratch/Gau-995474.inp" -scrdir="/CompChemNFS/GaussianScratch/"
 Entering Link 1 = /Apps/Gaussian/G16//g16/l1.exe PID=    995476.
  
 Copyright (c) 1988,1990,1992,1993,1995,1998,2003,2009,2016,
            Gaussian, Inc.  All Rights Reserved.
  
 This is part of the Gaussian(R) 16 program.  It is based on
 the Gaussian(R) 09 system (copyright 2009, Gaussian, Inc.),
 the Gaussian(R) 03 system (copyright 2003, Gaussian, Inc.),
 the Gaussian(R) 98 system (copyright 1998, Gaussian, Inc.),
 the Gaussian(R) 94 system (copyright 1995, Gaussian, Inc.),
 the Gaussian 92(TM) system (copyright 1992, Gaussian, Inc.),
 the Gaussian 90(TM) system (copyright 1990, Gaussian, Inc.),
 the Gaussian 88(TM) system (copyright 1988, Gaussian, Inc.),
 the Gaussian 86(TM) system (copyright 1986, Carnegie Mellon
 University), and the Gaussian 82(TM) system (copyright 1983,
 Carnegie Mellon University). Gaussian is a federally registered
 trademark of Gaussian, Inc.
  
 This software contains proprietary and confidential information,
 including trade secrets, belonging to Gaussian, Inc.
  
 This software is provided under written license and may be
 used, copied, transmitted, or stored only in accord with that
 written license.
  
 The following legend is applicable only to US Government
 contracts under FAR:
  
                    RESTRICTED RIGHTS LEGEND
  
 Use, reproduction and disclosure by the US Government is
 subject to restrictions as set forth in subparagraphs (a)
 and (c) of the Commercial Computer Software - Restricted
 Rights clause in FAR 52.227-19.
  
 Gaussian, Inc.
 340 Quinnipiac St., Bldg. 40, Wallingford CT 06492
  
  
 ---------------------------------------------------------------
 Warning -- This program may not be used in any manner that
 competes with the business of Gaussian, Inc. or will provide
 assistance to any competitor of Gaussian, Inc.  The licensee
 of this program is prohibited from giving any competitor of
 Gaussian, Inc. access to this program.  By using this program,
 the user acknowledges that Gaussian, Inc. is engaged in the
 business of creating and licensing software in the field of
 computational chemistry and represents and warrants to the
 licensee that it is not a competitor of Gaussian, Inc. and that
 it will not use this program in any manner prohibited above.
 ---------------------------------------------------------------
  

 Cite this work as:
 Gaussian 16, Revision A.03,
 M. J. Frisch, G. W. Trucks, H. B. Schlegel, G. E. Scuseria, 
 M. A. Robb, J. R. Cheeseman, G. Scalmani, V. Barone, 
 G. A. Petersson, H. Nakatsuji, X. Li, M. Caricato, A. V. Marenich, 
 J. Bloino, B. G. Janesko, R. Gomperts, B. Mennucci, H. P. Hratchian, 
 J. V. Ortiz, A. F. Izmaylov, J. L. Sonnenberg, D. Williams-Young, 
 F. Ding, F. Lipparini, F. Egidi, J. Goings, B. Peng, A. Petrone, 
 T. Henderson, D. Ranasinghe, V. G. Zakrzewski, J. Gao, N. Rega, 
 G. Zheng, W. Liang, M. Hada, M. Ehara, K. Toyota, R. Fukuda, 
 J. Hasegawa, M. Ishida, T. Nakajima, Y. Honda, O. Kitao, H. Nakai, 
 T. Vreven, K. Throssell, J. A. Montgomery, Jr., J. E. Peralta, 
 F. Ogliaro, M. J. Bearpark, J. J. Heyd, E. N. Brothers, K. N. Kudin, 
 V. N. Staroverov, T. A. Keith, R. Kobayashi, J. Normand, 
 K. Raghavachari, A. P. Rendell, J. C. Burant, S. S. Iyengar, 
 J. Tomasi, M. Cossi, J. M. Millam, M. Klene, C. Adamo, R. Cammi, 
 J. W. Ochterski, R. L. Martin, K. Morokuma, O. Farkas, 
 J. B. Foresman, and D. J. Fox, Gaussian, Inc., Wallingford CT, 2016.
 
 ******************************************
 Gaussian 16:  ES64L-G16RevA.03 25-Dec-2016
                 4-Jun-2025 
 ******************************************
 %nprocshared=14
 Will use up to   14 processors via shared memory.
 %mem=16GB
 %chk=Nifedipine_DFT_B3LYP_6311pp2d3p_OptFreq_Raman_Hirshfeld_180_NO2.chk
 ----------------------------------------------------------------------
 #p opt freq=raman b3lyp/6-311++g(2d,3p) guess=save pop=hirshfeld geom=
 connectivity
 ----------------------------------------------------------------------
 1/18=20,19=15,26=3,38=1,57=2/1,3;
 2/9=110,12=2,17=6,18=5,40=1/2;
 3/5=4,6=6,7=1512,11=2,25=1,30=1,71=1,74=-5/1,2,3;
 4//1;
 5/5=2,38=5/2;
 6/7=2,8=2,9=2,10=2,28=1,79=1/1;
 7//1,2,3,16;
 1/18=20,19=15,26=3/3(2);
 2/9=110/2;
 99//99;
 2/9=110/2;
 3/5=4,6=6,7=1512,11=2,25=1,30=1,71=1,74=-5/1,2,3;
 4/5=5,16=3,69=1/1;
 5/5=2,38=5/2;
 7//1,2,3,16;
 1/18=20,19=15,26=3/3(-5);
 2/9=110/2;
 6/7=2,8=2,9=2,10=2,19=2,28=1,79=1/1;
 99/9=1/99;
 Leave Link    1 at Wed Jun  4 11:39:58 2025, MaxMem=  2147483648 cpu:               0.4 elap:               0.0
 (Enter /Apps/Gaussian/G16//g16/l101.exe)
 ----------
 Nifedipine
 ----------
 Symbolic Z-matrix:
 Charge =  0 Multiplicity = 1
 C                     1.08569   0.85115   0.84457 
 C                     1.11929   0.28183  -0.43553 
 C                     0.52083   0.94693  -1.51414 
 C                    -0.11124   2.18135  -1.31265 
 C                    -0.14484   2.75068  -0.03255 
 C                     0.45362   2.08558   1.04606 
 H                     1.54263   0.34333   1.66812 
 H                    -0.56818   2.68917  -2.13619 
 H                    -0.62744   3.6932    0.12129 
 H                     0.42796   2.52027   2.02345 
 C                     1.81387  -1.07469  -0.65695 
 C                     2.98205  -1.2313    0.32387 
 C                     0.80103  -2.21443  -0.49478 
 C                     3.2915   -2.43475   0.8651 
 C                     1.15493  -3.39785   0.06314 
 C                    -0.64122  -2.01807  -0.99774 
 O                    -0.98022  -0.92759  -1.52642 
 O                    -1.59521  -3.07491  -0.86401 
 C                     3.83508  -0.0003    0.68245 
 O                     3.56437   1.12096   0.1794 
 O                     4.93482  -0.13139   1.58705 
 C                    -2.54752  -2.99485  -1.92777 
 H                    -3.26135  -3.78563  -1.8277 
 H                    -3.05149  -2.05193  -1.88509 
 H                    -2.04231  -3.08708  -2.86646 
 C                     5.11955   1.09777   2.2941 
 H                     5.94243   0.99968   2.97097 
 H                     5.32309   1.88331   1.59667 
 H                     4.23137   1.33005   2.84372 
 N                     2.31007  -3.5329    0.97321 
 H                     1.95227  -3.51659   1.90687 
 C                     0.30512  -4.64509  -0.24315 
 H                    -0.70636  -4.35038  -0.43013 
 H                     0.69754  -5.14087  -1.10634 
 H                     0.33372  -5.31059   0.59422 
 C                     4.71386  -2.65777   1.41168 
 H                     5.40797  -2.06678   0.85147 
 H                     4.74954  -2.3693    2.44145 
 H                     4.97233  -3.69219   1.3219 
 N                     0.55607   0.34973  -2.8569 
 O                    -0.02471   0.99518  -3.90365 
 O                     1.09586  -0.70448  -3.02897 
 H                     2.20774  -1.12093  -1.65074 
 
 ITRead=  0  0  0  0  0  0  0  0  0  0  0  0  0  0  0  0  0  0  0  0
 ITRead=  0  0  0  0  0  0  0  0  0  0  0  0  0  0  0  0  0  0  0  0
 ITRead=  0  0  0
 MicOpt= -1 -1 -1 -1 -1 -1 -1 -1 -1 -1 -1 -1 -1 -1 -1 -1 -1 -1 -1 -1
 MicOpt= -1 -1 -1 -1 -1 -1 -1 -1 -1 -1 -1 -1 -1 -1 -1 -1 -1 -1 -1 -1
 MicOpt= -1 -1 -1
 NAtoms=     43 NQM=       43 NQMF=       0 NMMI=      0 NMMIF=      0
                NMic=       0 NMicF=      0.
                    Isotopes and Nuclear Properties:
 (Nuclear quadrupole moments (NQMom) in fm**2, nuclear magnetic moments (NMagM)
  in nuclear magnetons)

  Atom         1           2           3           4           5           6           7           8           9          10
 IAtWgt=          12          12          12          12          12          12           1           1           1           1
 AtmWgt=  12.0000000  12.0000000  12.0000000  12.0000000  12.0000000  12.0000000   1.0078250   1.0078250   1.0078250   1.0078250
 NucSpn=           0           0           0           0           0           0           1           1           1           1
 AtZEff=  -0.0000000  -0.0000000  -0.0000000  -0.0000000  -0.0000000  -0.0000000  -0.0000000  -0.0000000  -0.0000000  -0.0000000
 NQMom=    0.0000000   0.0000000   0.0000000   0.0000000   0.0000000   0.0000000   0.0000000   0.0000000   0.0000000   0.0000000
 NMagM=    0.0000000   0.0000000   0.0000000   0.0000000   0.0000000   0.0000000   2.7928460   2.7928460   2.7928460   2.7928460
 AtZNuc=   6.0000000   6.0000000   6.0000000   6.0000000   6.0000000   6.0000000   1.0000000   1.0000000   1.0000000   1.0000000

  Atom        11          12          13          14          15          16          17          18          19          20
 IAtWgt=          12          12          12          12          12          12          16          16          12          16
 AtmWgt=  12.0000000  12.0000000  12.0000000  12.0000000  12.0000000  12.0000000  15.9949146  15.9949146  12.0000000  15.9949146
 NucSpn=           0           0           0           0           0           0           0           0           0           0
 AtZEff=  -0.0000000  -0.0000000  -0.0000000  -0.0000000  -0.0000000  -0.0000000  -0.0000000  -0.0000000  -0.0000000  -0.0000000
 NQMom=    0.0000000   0.0000000   0.0000000   0.0000000   0.0000000   0.0000000   0.0000000   0.0000000   0.0000000   0.0000000
 NMagM=    0.0000000   0.0000000   0.0000000   0.0000000   0.0000000   0.0000000   0.0000000   0.0000000   0.0000000   0.0000000
 AtZNuc=   6.0000000   6.0000000   6.0000000   6.0000000   6.0000000   6.0000000   8.0000000   8.0000000   6.0000000   8.0000000

  Atom        21          22          23          24          25          26          27          28          29          30
 IAtWgt=          16          12           1           1           1          12           1           1           1          14
 AtmWgt=  15.9949146  12.0000000   1.0078250   1.0078250   1.0078250  12.0000000   1.0078250   1.0078250   1.0078250  14.0030740
 NucSpn=           0           0           1           1           1           0           1           1           1           2
 AtZEff=  -0.0000000  -0.0000000  -0.0000000  -0.0000000  -0.0000000  -0.0000000  -0.0000000  -0.0000000  -0.0000000  -0.0000000
 NQMom=    0.0000000   0.0000000   0.0000000   0.0000000   0.0000000   0.0000000   0.0000000   0.0000000   0.0000000   2.0440000
 NMagM=    0.0000000   0.0000000   2.7928460   2.7928460   2.7928460   0.0000000   2.7928460   2.7928460   2.7928460   0.4037610
 AtZNuc=   8.0000000   6.0000000   1.0000000   1.0000000   1.0000000   6.0000000   1.0000000   1.0000000   1.0000000   7.0000000

  Atom        31          32          33          34          35          36          37          38          39          40
 IAtWgt=           1          12           1           1           1          12           1           1           1          14
 AtmWgt=   1.0078250  12.0000000   1.0078250   1.0078250   1.0078250  12.0000000   1.0078250   1.0078250   1.0078250  14.0030740
 NucSpn=           1           0           1           1           1           0           1           1           1           2
 AtZEff=  -0.0000000  -0.0000000  -0.0000000  -0.0000000  -0.0000000  -0.0000000  -0.0000000  -0.0000000  -0.0000000  -0.0000000
 NQMom=    0.0000000   0.0000000   0.0000000   0.0000000   0.0000000   0.0000000   0.0000000   0.0000000   0.0000000   2.0440000
 NMagM=    2.7928460   0.0000000   2.7928460   2.7928460   2.7928460   0.0000000   2.7928460   2.7928460   2.7928460   0.4037610
 AtZNuc=   1.0000000   6.0000000   1.0000000   1.0000000   1.0000000   6.0000000   1.0000000   1.0000000   1.0000000   7.0000000

  Atom        41          42          43
 IAtWgt=          16          16           1
 AtmWgt=  15.9949146  15.9949146   1.0078250
 NucSpn=           0           0           1
 AtZEff=  -0.0000000  -0.0000000  -0.0000000
 NQMom=    0.0000000   0.0000000   0.0000000
 NMagM=    0.0000000   0.0000000   2.7928460
 AtZNuc=   8.0000000   8.0000000   1.0000000
 Leave Link  101 at Wed Jun  4 11:39:58 2025, MaxMem=  2147483648 cpu:               5.3 elap:               0.4
 (Enter /Apps/Gaussian/G16//g16/l103.exe)

 GradGradGradGradGradGradGradGradGradGradGradGradGradGradGradGradGradGrad
 Berny optimization.
 Initialization pass.
                           ----------------------------
                           !    Initial Parameters    !
                           ! (Angstroms and Degrees)  !
 --------------------------                            --------------------------
 ! Name  Definition              Value          Derivative Info.                !
 --------------------------------------------------------------------------------
 ! R1    R(1,2)                  1.4014         estimate D2E/DX2                !
 ! R2    R(1,6)                  1.4014         estimate D2E/DX2                !
 ! R3    R(1,7)                  1.07           estimate D2E/DX2                !
 ! R4    R(2,3)                  1.4014         estimate D2E/DX2                !
 ! R5    R(2,11)                 1.54           estimate D2E/DX2                !
 ! R6    R(3,4)                  1.4014         estimate D2E/DX2                !
 ! R7    R(3,40)                 1.47           estimate D2E/DX2                !
 ! R8    R(4,5)                  1.4014         estimate D2E/DX2                !
 ! R9    R(4,8)                  1.07           estimate D2E/DX2                !
 ! R10   R(5,6)                  1.4014         estimate D2E/DX2                !
 ! R11   R(5,9)                  1.07           estimate D2E/DX2                !
 ! R12   R(6,10)                 1.07           estimate D2E/DX2                !
 ! R13   R(11,12)                1.5334         estimate D2E/DX2                !
 ! R14   R(11,13)                1.5334         estimate D2E/DX2                !
 ! R15   R(11,43)                1.07           estimate D2E/DX2                !
 ! R16   R(12,14)                1.3554         estimate D2E/DX2                !
 ! R17   R(12,19)                1.54           estimate D2E/DX2                !
 ! R18   R(13,15)                1.3554         estimate D2E/DX2                !
 ! R19   R(13,16)                1.54           estimate D2E/DX2                !
 ! R20   R(14,30)                1.4768         estimate D2E/DX2                !
 ! R21   R(14,36)                1.54           estimate D2E/DX2                !
 ! R22   R(15,30)                1.4768         estimate D2E/DX2                !
 ! R23   R(15,32)                1.54           estimate D2E/DX2                !
 ! R24   R(16,17)                1.2584         estimate D2E/DX2                !
 ! R25   R(16,18)                1.43           estimate D2E/DX2                !
 ! R26   R(18,22)                1.43           estimate D2E/DX2                !
 ! R27   R(19,20)                1.2584         estimate D2E/DX2                !
 ! R28   R(19,21)                1.43           estimate D2E/DX2                !
 ! R29   R(21,26)                1.43           estimate D2E/DX2                !
 ! R30   R(22,23)                1.07           estimate D2E/DX2                !
 ! R31   R(22,24)                1.07           estimate D2E/DX2                !
 ! R32   R(22,25)                1.07           estimate D2E/DX2                !
 ! R33   R(26,27)                1.07           estimate D2E/DX2                !
 ! R34   R(26,28)                1.07           estimate D2E/DX2                !
 ! R35   R(26,29)                1.07           estimate D2E/DX2                !
 ! R36   R(30,31)                1.0            estimate D2E/DX2                !
 ! R37   R(32,33)                1.07           estimate D2E/DX2                !
 ! R38   R(32,34)                1.07           estimate D2E/DX2                !
 ! R39   R(32,35)                1.07           estimate D2E/DX2                !
 ! R40   R(36,37)                1.07           estimate D2E/DX2                !
 ! R41   R(36,38)                1.07           estimate D2E/DX2                !
 ! R42   R(36,39)                1.07           estimate D2E/DX2                !
 ! R43   R(40,41)                1.36           estimate D2E/DX2                !
 ! R44   R(40,42)                1.1968         estimate D2E/DX2                !
 ! A1    A(2,1,6)              120.0            estimate D2E/DX2                !
 ! A2    A(2,1,7)              120.0            estimate D2E/DX2                !
 ! A3    A(6,1,7)              120.0            estimate D2E/DX2                !
 ! A4    A(1,2,3)              120.0            estimate D2E/DX2                !
 ! A5    A(1,2,11)             120.0            estimate D2E/DX2                !
 ! A6    A(3,2,11)             120.0            estimate D2E/DX2                !
 ! A7    A(2,3,4)              120.0            estimate D2E/DX2                !
 ! A8    A(2,3,40)             120.0            estimate D2E/DX2                !
 ! A9    A(4,3,40)             120.0            estimate D2E/DX2                !
 ! A10   A(3,4,5)              120.0            estimate D2E/DX2                !
 ! A11   A(3,4,8)              120.0            estimate D2E/DX2                !
 ! A12   A(5,4,8)              120.0            estimate D2E/DX2                !
 ! A13   A(4,5,6)              120.0            estimate D2E/DX2                !
 ! A14   A(4,5,9)              120.0            estimate D2E/DX2                !
 ! A15   A(6,5,9)              120.0            estimate D2E/DX2                !
 ! A16   A(1,6,5)              120.0            estimate D2E/DX2                !
 ! A17   A(1,6,10)             120.0            estimate D2E/DX2                !
 ! A18   A(5,6,10)             120.0            estimate D2E/DX2                !
 ! A19   A(2,11,12)            109.9752         estimate D2E/DX2                !
 ! A20   A(2,11,13)            109.9752         estimate D2E/DX2                !
 ! A21   A(2,11,43)            109.7326         estimate D2E/DX2                !
 ! A22   A(12,11,13)           111.0798         estimate D2E/DX2                !
 ! A23   A(12,11,43)           108.0138         estimate D2E/DX2                !
 ! A24   A(13,11,43)           108.0138         estimate D2E/DX2                !
 ! A25   A(11,12,14)           121.3365         estimate D2E/DX2                !
 ! A26   A(11,12,19)           119.2942         estimate D2E/DX2                !
 ! A27   A(14,12,19)           119.3612         estimate D2E/DX2                !
 ! A28   A(11,13,15)           121.3365         estimate D2E/DX2                !
 ! A29   A(11,13,16)           119.2943         estimate D2E/DX2                !
 ! A30   A(15,13,16)           119.3612         estimate D2E/DX2                !
 ! A31   A(12,14,30)           122.5325         estimate D2E/DX2                !
 ! A32   A(12,14,36)           118.7634         estimate D2E/DX2                !
 ! A33   A(30,14,36)           118.6947         estimate D2E/DX2                !
 ! A34   A(13,15,30)           122.5325         estimate D2E/DX2                !
 ! A35   A(13,15,32)           118.7634         estimate D2E/DX2                !
 ! A36   A(30,15,32)           118.6947         estimate D2E/DX2                !
 ! A37   A(13,16,17)           120.0            estimate D2E/DX2                !
 ! A38   A(13,16,18)           120.0            estimate D2E/DX2                !
 ! A39   A(17,16,18)           120.0            estimate D2E/DX2                !
 ! A40   A(16,18,22)           109.4712         estimate D2E/DX2                !
 ! A41   A(12,19,20)           120.0            estimate D2E/DX2                !
 ! A42   A(12,19,21)           120.0            estimate D2E/DX2                !
 ! A43   A(20,19,21)           120.0            estimate D2E/DX2                !
 ! A44   A(19,21,26)           109.4712         estimate D2E/DX2                !
 ! A45   A(18,22,23)           109.4712         estimate D2E/DX2                !
 ! A46   A(18,22,24)           109.4712         estimate D2E/DX2                !
 ! A47   A(18,22,25)           109.4712         estimate D2E/DX2                !
 ! A48   A(23,22,24)           109.4712         estimate D2E/DX2                !
 ! A49   A(23,22,25)           109.4712         estimate D2E/DX2                !
 ! A50   A(24,22,25)           109.4712         estimate D2E/DX2                !
 ! A51   A(21,26,27)           109.4712         estimate D2E/DX2                !
 ! A52   A(21,26,28)           109.4712         estimate D2E/DX2                !
 ! A53   A(21,26,29)           109.4712         estimate D2E/DX2                !
 ! A54   A(27,26,28)           109.4712         estimate D2E/DX2                !
 ! A55   A(27,26,29)           109.4712         estimate D2E/DX2                !
 ! A56   A(28,26,29)           109.4712         estimate D2E/DX2                !
 ! A57   A(14,30,15)           113.999          estimate D2E/DX2                !
 ! A58   A(14,30,31)           107.0982         estimate D2E/DX2                !
 ! A59   A(15,30,31)           107.0982         estimate D2E/DX2                !
 ! A60   A(15,32,33)           109.4712         estimate D2E/DX2                !
 ! A61   A(15,32,34)           109.4712         estimate D2E/DX2                !
 ! A62   A(15,32,35)           109.4712         estimate D2E/DX2                !
 ! A63   A(33,32,34)           109.4712         estimate D2E/DX2                !
 ! A64   A(33,32,35)           109.4712         estimate D2E/DX2                !
 ! A65   A(34,32,35)           109.4712         estimate D2E/DX2                !
 ! A66   A(14,36,37)           109.4712         estimate D2E/DX2                !
 ! A67   A(14,36,38)           109.4712         estimate D2E/DX2                !
 ! A68   A(14,36,39)           109.4712         estimate D2E/DX2                !
 ! A69   A(37,36,38)           109.4712         estimate D2E/DX2                !
 ! A70   A(37,36,39)           109.4712         estimate D2E/DX2                !
 ! A71   A(38,36,39)           109.4712         estimate D2E/DX2                !
 ! A72   A(3,40,41)            120.0            estimate D2E/DX2                !
 ! A73   A(3,40,42)            120.0            estimate D2E/DX2                !
 ! A74   A(41,40,42)           120.0            estimate D2E/DX2                !
 ! D1    D(6,1,2,3)             -0.0001         estimate D2E/DX2                !
 ! D2    D(6,1,2,11)           179.9999         estimate D2E/DX2                !
 ! D3    D(7,1,2,3)            179.9999         estimate D2E/DX2                !
 ! D4    D(7,1,2,11)            -0.0001         estimate D2E/DX2                !
 ! D5    D(2,1,6,5)              0.0            estimate D2E/DX2                !
 ! D6    D(2,1,6,10)           179.9999         estimate D2E/DX2                !
 ! D7    D(7,1,6,5)           -180.0            estimate D2E/DX2                !
 ! D8    D(7,1,6,10)            -0.0001         estimate D2E/DX2                !
 ! D9    D(1,2,3,4)              0.0            estimate D2E/DX2                !
 ! D10   D(1,2,3,40)          -179.9998         estimate D2E/DX2                !
 ! D11   D(11,2,3,4)          -180.0            estimate D2E/DX2                !
 ! D12   D(11,2,3,40)            0.0002         estimate D2E/DX2                !
 ! D13   D(1,2,11,12)          -31.3181         estimate D2E/DX2                !
 ! D14   D(1,2,11,13)           91.3181         estimate D2E/DX2                !
 ! D15   D(1,2,11,43)         -150.0            estimate D2E/DX2                !
 ! D16   D(3,2,11,12)          148.6819         estimate D2E/DX2                !
 ! D17   D(3,2,11,13)          -88.6819         estimate D2E/DX2                !
 ! D18   D(3,2,11,43)           30.0            estimate D2E/DX2                !
 ! D19   D(2,3,4,5)              0.0001         estimate D2E/DX2                !
 ! D20   D(2,3,4,8)           -179.9999         estimate D2E/DX2                !
 ! D21   D(40,3,4,5)           179.9999         estimate D2E/DX2                !
 ! D22   D(40,3,4,8)             0.0            estimate D2E/DX2                !
 ! D23   D(2,3,40,41)          179.9999         estimate D2E/DX2                !
 ! D24   D(2,3,40,42)           -0.0001         estimate D2E/DX2                !
 ! D25   D(4,3,40,41)            0.0            estimate D2E/DX2                !
 ! D26   D(4,3,40,42)         -180.0            estimate D2E/DX2                !
 ! D27   D(3,4,5,6)             -0.0001         estimate D2E/DX2                !
 ! D28   D(3,4,5,9)           -179.9999         estimate D2E/DX2                !
 ! D29   D(8,4,5,6)            179.9998         estimate D2E/DX2                !
 ! D30   D(8,4,5,9)              0.0            estimate D2E/DX2                !
 ! D31   D(4,5,6,1)              0.0001         estimate D2E/DX2                !
 ! D32   D(4,5,6,10)          -179.9998         estimate D2E/DX2                !
 ! D33   D(9,5,6,1)            179.9999         estimate D2E/DX2                !
 ! D34   D(9,5,6,10)             0.0            estimate D2E/DX2                !
 ! D35   D(2,11,12,14)         144.0727         estimate D2E/DX2                !
 ! D36   D(2,11,12,19)         -36.9646         estimate D2E/DX2                !
 ! D37   D(13,11,12,14)         22.0904         estimate D2E/DX2                !
 ! D38   D(13,11,12,19)       -158.9468         estimate D2E/DX2                !
 ! D39   D(43,11,12,14)        -96.1943         estimate D2E/DX2                !
 ! D40   D(43,11,12,19)         82.7684         estimate D2E/DX2                !
 ! D41   D(2,11,13,15)        -144.0727         estimate D2E/DX2                !
 ! D42   D(2,11,13,16)          36.9646         estimate D2E/DX2                !
 ! D43   D(12,11,13,15)        -22.0904         estimate D2E/DX2                !
 ! D44   D(12,11,13,16)        158.9468         estimate D2E/DX2                !
 ! D45   D(43,11,13,15)         96.1943         estimate D2E/DX2                !
 ! D46   D(43,11,13,16)        -82.7684         estimate D2E/DX2                !
 ! D47   D(11,12,14,30)        -22.9284         estimate D2E/DX2                !
 ! D48   D(11,12,14,36)        158.205          estimate D2E/DX2                !
 ! D49   D(19,12,14,30)        158.1096         estimate D2E/DX2                !
 ! D50   D(19,12,14,36)        -20.7571         estimate D2E/DX2                !
 ! D51   D(11,12,19,20)          0.5083         estimate D2E/DX2                !
 ! D52   D(11,12,19,21)       -179.4917         estimate D2E/DX2                !
 ! D53   D(14,12,19,20)        179.4917         estimate D2E/DX2                !
 ! D54   D(14,12,19,21)         -0.5083         estimate D2E/DX2                !
 ! D55   D(11,13,15,30)         22.9284         estimate D2E/DX2                !
 ! D56   D(11,13,15,32)       -158.2049         estimate D2E/DX2                !
 ! D57   D(16,13,15,30)       -158.1096         estimate D2E/DX2                !
 ! D58   D(16,13,15,32)         20.7571         estimate D2E/DX2                !
 ! D59   D(11,13,16,17)         -0.5082         estimate D2E/DX2                !
 ! D60   D(11,13,16,18)        179.4917         estimate D2E/DX2                !
 ! D61   D(15,13,16,17)       -179.4916         estimate D2E/DX2                !
 ! D62   D(15,13,16,18)          0.5082         estimate D2E/DX2                !
 ! D63   D(12,14,30,15)         19.8126         estimate D2E/DX2                !
 ! D64   D(12,14,30,31)        -98.4597         estimate D2E/DX2                !
 ! D65   D(36,14,30,15)       -161.3199         estimate D2E/DX2                !
 ! D66   D(36,14,30,31)         80.4077         estimate D2E/DX2                !
 ! D67   D(12,14,36,37)        -30.5446         estimate D2E/DX2                !
 ! D68   D(12,14,36,38)         89.4554         estimate D2E/DX2                !
 ! D69   D(12,14,36,39)       -150.5446         estimate D2E/DX2                !
 ! D70   D(30,14,36,37)        150.5446         estimate D2E/DX2                !
 ! D71   D(30,14,36,38)        -89.4554         estimate D2E/DX2                !
 ! D72   D(30,14,36,39)         30.5446         estimate D2E/DX2                !
 ! D73   D(13,15,30,14)        -19.8126         estimate D2E/DX2                !
 ! D74   D(13,15,30,31)         98.4597         estimate D2E/DX2                !
 ! D75   D(32,15,30,14)        161.3199         estimate D2E/DX2                !
 ! D76   D(32,15,30,31)        -80.4077         estimate D2E/DX2                !
 ! D77   D(13,15,32,33)        -29.4554         estimate D2E/DX2                !
 ! D78   D(13,15,32,34)         90.5446         estimate D2E/DX2                !
 ! D79   D(13,15,32,35)       -149.4554         estimate D2E/DX2                !
 ! D80   D(30,15,32,33)        149.4554         estimate D2E/DX2                !
 ! D81   D(30,15,32,34)        -90.5446         estimate D2E/DX2                !
 ! D82   D(30,15,32,35)         29.4554         estimate D2E/DX2                !
 ! D83   D(13,16,18,22)       -149.9999         estimate D2E/DX2                !
 ! D84   D(17,16,18,22)         29.9999         estimate D2E/DX2                !
 ! D85   D(16,18,22,23)       -180.0            estimate D2E/DX2                !
 ! D86   D(16,18,22,24)        -60.0            estimate D2E/DX2                !
 ! D87   D(16,18,22,25)         60.0            estimate D2E/DX2                !
 ! D88   D(12,19,21,26)       -150.0            estimate D2E/DX2                !
 ! D89   D(20,19,21,26)         30.0            estimate D2E/DX2                !
 ! D90   D(19,21,26,27)        180.0            estimate D2E/DX2                !
 ! D91   D(19,21,26,28)        -60.0            estimate D2E/DX2                !
 ! D92   D(19,21,26,29)         60.0            estimate D2E/DX2                !
 --------------------------------------------------------------------------------
 Trust Radius=3.00D-01 FncErr=1.00D-07 GrdErr=1.00D-06 EigMax=2.50D+02 EigMin=1.00D-04
 Number of steps in this run=    220 maximum allowed number of steps=    258.
 GradGradGradGradGradGradGradGradGradGradGradGradGradGradGradGradGradGrad

 Leave Link  103 at Wed Jun  4 11:39:58 2025, MaxMem=  2147483648 cpu:               0.1 elap:               0.0
 (Enter /Apps/Gaussian/G16//g16/l202.exe)
                          Input orientation:                          
 ---------------------------------------------------------------------
 Center     Atomic      Atomic             Coordinates (Angstroms)
 Number     Number       Type             X           Y           Z
 ---------------------------------------------------------------------
      1          6           0        1.085689    0.851152    0.844573
      2          6           0        1.119294    0.281825   -0.435528
      3          6           0        0.520829    0.946926   -1.514140
      4          6           0       -0.111239    2.181354   -1.312650
      5          6           0       -0.144841    2.750683   -0.032550
      6          6           0        0.453622    2.085581    1.046062
      7          1           0        1.542629    0.343333    1.668117
      8          1           0       -0.568182    2.689173   -2.136194
      9          1           0       -0.627441    3.693196    0.121292
     10          1           0        0.427963    2.520275    2.023448
     11          6           0        1.813874   -1.074690   -0.656945
     12          6           0        2.982054   -1.231301    0.323867
     13          6           0        0.801031   -2.214433   -0.494784
     14          6           0        3.291502   -2.434750    0.865101
     15          6           0        1.154931   -3.397845    0.063136
     16          6           0       -0.641215   -2.018067   -0.997741
     17          8           0       -0.980223   -0.927587   -1.526417
     18          8           0       -1.595207   -3.074909   -0.864008
     19          6           0        3.835084   -0.000300    0.682445
     20          8           0        3.564368    1.120964    0.179404
     21          8           0        4.934815   -0.131392    1.587048
     22          6           0       -2.547525   -2.994849   -1.927766
     23          1           0       -3.261351   -3.785633   -1.827700
     24          1           0       -3.051490   -2.051929   -1.885095
     25          1           0       -2.042308   -3.087081   -2.866461
     26          6           0        5.119554    1.097772    2.294103
     27          1           0        5.942430    0.999683    2.970973
     28          1           0        5.323094    1.883307    1.596674
     29          1           0        4.231369    1.330051    2.843716
     30          7           0        2.310071   -3.532901    0.973214
     31          1           0        1.952268   -3.516587    1.906869
     32          6           0        0.305118   -4.645086   -0.243146
     33          1           0       -0.706360   -4.350380   -0.430125
     34          1           0        0.697535   -5.140875   -1.106339
     35          1           0        0.333725   -5.310592    0.594221
     36          6           0        4.713862   -2.657771    1.411685
     37          1           0        5.407972   -2.066777    0.851472
     38          1           0        4.749543   -2.369298    2.441447
     39          1           0        4.972335   -3.692194    1.321904
     40          7           0        0.556075    0.349727   -2.856902
     41          8           0       -0.024712    0.995178   -3.903649
     42          8           0        1.095862   -0.704479   -3.028975
     43          1           0        2.207743   -1.120935   -1.650740
 ---------------------------------------------------------------------
                    Distance matrix (angstroms):
                    1          2          3          4          5
     1  C    0.000000
     2  C    1.401400   0.000000
     3  C    2.427296   1.401400   0.000000
     4  C    2.802800   2.427296   1.401400   0.000000
     5  C    2.427296   2.802800   2.427296   1.401400   0.000000
     6  C    1.401400   2.427296   2.802800   2.427296   1.401400
     7  H    1.070000   2.146700   3.396345   3.872800   3.396345
     8  H    3.872800   3.396345   2.146700   1.070000   2.146700
     9  H    3.396345   3.872800   3.396345   2.146700   1.070000
    10  H    2.146700   3.396345   3.872800   3.396345   2.146700
    11  C    2.548270   1.540000   2.548270   3.838989   4.342800
    12  C    2.864253   2.517163   3.765710   4.888033   5.075500
    13  C    3.357488   2.517163   3.333435   4.563342   5.075501
    14  C    3.957674   3.713476   4.977263   6.134303   6.285137
    15  C    4.320812   3.713477   4.665503   5.884169   6.285138
    16  C    3.822138   2.950420   3.226173   4.244429   4.890701
    17  O    3.612963   2.657195   2.401480   3.235173   4.056990
    18  O    5.051773   4.338176   4.590799   5.480123   6.060726
    19  C    2.882781   2.950420   4.087359   4.930871   4.890698
    20  O    2.580522   2.657194   3.487335   4.106183   4.056986
    21  O    4.041340   4.338175   5.501219   6.262564   6.060723
    22  C    5.973093   5.138962   5.012332   5.753863   6.509675
    23  H    6.894750   6.137785   6.066327   6.767084   7.460470
    24  H    5.744146   4.994305   4.678910   5.185890   5.911481
    25  H    6.250266   5.220602   4.967057   5.822350   6.760985
    26  C    4.293486   4.911083   5.972749   6.445465   5.988262
    27  H    5.303920   5.948295   7.036531   7.509506   7.010137
    28  H    4.425675   4.936246   5.797907   6.171303   5.771051
    29  H    3.757821   4.640822   5.736357   6.071107   5.426077
    30  N    4.553634   4.237291   5.427445   6.613670   6.820673
    31  H    4.577836   4.539670   5.803039   6.862208   6.887517
    32  C    5.656948   4.997434   5.738689   6.922245   7.412436
    33  H    5.647321   4.978993   5.544595   6.617898   7.134316
    34  H    6.313566   5.480286   6.104002   7.369648   8.008702
    35  H    6.212505   5.740438   6.605810   7.743605   8.099754
    36  C    5.079153   4.997434   6.255862   7.356680   7.412435
    37  H    5.215025   5.056190   6.209886   7.293266   7.404266
    38  H    5.132751   5.337054   6.672782   7.643879   7.502657
    39  H    5.997988   5.807523   7.027125   8.202571   8.338507
    40  N    3.772644   2.486942   1.470000   2.486942   3.772644
    41  O    4.878458   3.720953   2.451469   2.850925   4.252251
    42  O    4.174262   2.774763   2.313553   3.568038   4.738782
    43  H    3.372643   2.151557   2.672150   4.049333   4.810678
                    6          7          8          9         10
     6  C    0.000000
     7  H    2.146700   0.000000
     8  H    3.396345   4.942800   0.000000
     9  H    2.146700   4.280590   2.471400   0.000000
    10  H    1.070000   2.471400   4.280590   2.471400   0.000000
    11  C    3.838989   2.736837   4.693509   5.412800   4.693509
    12  C    4.232758   2.521591   5.833197   6.109023   4.846264
    13  C    4.580942   3.430783   5.349236   6.109023   5.375698
    14  C    5.340385   3.379517   7.082338   7.311846   5.838998
    15  C    5.614797   4.089338   6.697608   7.311846   6.276580
    16  C    4.713356   4.177581   4.843502   5.819875   5.555832
    17  O    4.213400   4.264395   3.690874   4.918438   5.145122
    18  O    5.871689   5.286024   5.991483   6.907578   6.613373
    19  C    3.989662   2.518925   5.879349   5.819874   4.445229
    20  O    3.370211   2.628384   4.989914   4.918436   3.898154
    21  O    5.028790   3.426202   7.218109   6.907576   5.247237
    22  C    6.607671   6.387738   6.022404   7.253641   7.408253
    23  H    7.518689   7.235144   7.019362   8.165104   8.258744
    24  H    6.164129   6.282398   5.357976   6.550424   6.948982
    25  H    6.949384   6.721749   6.005950   7.543253   7.839381
    26  C    4.929938   3.708831   7.383117   6.669728   4.909969
    27  H    5.917049   4.635351   8.445448   7.651071   5.798219
    28  H    4.904676   4.082712   7.020745   6.392285   4.954813
    29  H    4.251324   3.095960   7.048574   6.050130   4.068829
    30  N    5.917689   4.012112   7.527745   7.846733   6.425438
    31  H    5.862697   3.888931   7.823713   7.862833   6.227423
    32  C    6.854633   5.483491   7.624804   8.398180   7.516311
    33  H    6.704200   5.611730   7.244658   8.062841   7.383266
    34  H    7.544136   6.203895   7.998267   9.016842   8.280184
    35  H    7.410932   5.880609   8.500873   9.067287   7.960782
    36  C    6.386135   4.373683   8.311272   8.398179   6.749470
    37  H    6.467266   4.627787   8.201196   8.374763   6.871322
    38  H    6.344130   4.270913   8.649920   8.429051   6.539014
    39  H    7.340133   5.307374   9.131134   9.345745   7.729052
    40  N    4.272800   4.631321   2.693766   4.631321   5.342800
    41  O    5.090916   5.824607   2.507763   4.882902   6.136882
    42  O    4.980245   4.833237   3.883680   5.677455   6.030929
    43  H    4.542184   3.687990   4.739023   5.861247   5.470437
                   11         12         13         14         15
    11  C    0.000000
    12  C    1.533351   0.000000
    13  C    1.533351   2.528557   0.000000
    14  C    2.519876   1.355353   2.846098   0.000000
    15  C    2.519876   2.846098   1.355353   2.477022   0.000000
    16  C    2.652087   3.936208   1.540000   4.371507   2.501078
    17  O    2.929949   4.383541   2.427572   5.122356   3.631492
    18  O    3.957978   5.075555   2.572683   5.222982   2.920127
    19  C    2.652087   1.540000   3.936208   2.501078   4.371507
    20  O    2.929949   2.427572   4.383541   3.631492   5.122356
    21  O    3.957978   2.572683   5.075555   2.920127   5.222983
    22  C    4.931917   6.225448   3.724958   6.496773   4.223065
    23  H    5.871779   7.080534   4.555028   7.212208   4.819667
    24  H    5.112251   6.477391   4.098937   6.924137   4.827118
    25  H    4.878711   6.234287   3.804069   6.542142   4.347580
    26  C    4.935159   3.724958   6.115410   4.226409   6.395782
    27  H    5.874503   4.555028   6.983981   4.822597   7.121370
    28  H    5.113039   4.098938   6.450948   4.827855   6.900427
    29  H    4.886889   3.804070   5.956187   4.355685   6.288808
    30  N    2.991059   2.484064   2.484064   1.476763   1.476763
    31  H    3.543326   2.964606   2.964606   2.012262   2.012262
    32  C    3.898115   4.375091   2.493456   3.877149   1.540000
    33  H    4.139224   4.888922   2.615086   4.618457   2.148263
    34  H    4.240522   4.748609   2.991449   4.235369   2.148263
    35  H    4.658232   4.871074   3.315193   4.134282   2.148263
    36  C    3.898116   2.493456   4.375091   1.540000   3.877149
    37  H    4.022076   2.619439   4.801886   2.148263   4.525657
    38  H    4.460291   2.983823   4.923026   2.148263   4.431197
    39  H    4.554454   3.318628   4.783713   2.148263   4.030349
    40  N    2.907032   4.301433   3.494929   5.393439   4.788481
    41  O    4.266831   5.645330   4.754348   6.745567   6.035362
    42  O    2.505818   3.882887   2.964627   4.793590   4.101080
    43  H    1.070000   2.123868   2.123868   3.038109   3.038108
                   16         17         18         19         20
    16  C    0.000000
    17  O    1.258400   0.000000
    18  O    1.430000   2.329803   0.000000
    19  C    5.189572   5.378300   6.429058   0.000000
    20  O    5.378300   5.268746   6.731661   1.258400   0.000000
    21  O    6.429058   6.731661   7.570545   1.430000   2.329803
    22  C    2.335180   2.625089   1.430000   7.517860   7.663896
    23  H    3.267757   3.669161   2.051796   8.425495   8.642545
    24  H    2.568651   2.383892   2.051796   7.630618   7.622268
    25  H    2.568651   2.754480   2.051796   7.527728   7.643281
    26  C    7.330153   7.477013   8.513104   2.335180   2.625089
    27  H    8.258443   8.477264   9.387510   3.267757   3.669162
    28  H    7.584504   7.575396   8.860121   2.568651   2.383892
    29  H    7.050444   7.166288   8.191451   2.568651   2.754481
    30  N    3.858688   4.884859   4.340085   3.858688   4.884859
    31  H    4.172347   5.204794   4.522988   4.172347   5.204794
    32  C    2.892437   4.137474   2.542078   5.906895   6.636911
    33  H    2.401275   3.604494   1.614042   6.386370   6.967513
    34  H    3.399408   4.554463   3.095740   6.282473   7.005889
    35  H    3.784914   5.043243   3.293249   6.361328   7.209302
    36  C    5.906895   6.636911   6.719906   2.892437   4.137474
    37  H    6.325711   6.910944   7.280365   2.602474   3.743293
    38  H    6.404034   7.117071   7.188864   3.089089   4.324743
    39  H    6.300429   7.154644   6.949234   3.915652   5.143362
    40  N    3.239820   2.400403   4.508633   4.837500   4.343247
    41  O    4.231315   3.203320   5.317093   6.076287   5.437706
    42  O    2.978063   2.572467   4.189018   4.666245   4.440659
    43  H    3.057420   3.196243   4.347343   3.057420   3.196243
                   21         22         23         24         25
    21  O    0.000000
    22  C    8.748641   0.000000
    23  H    9.601621   1.070000   0.000000
    24  H    8.917696   1.070000   1.747303   0.000000
    25  H    8.789203   1.070000   1.747303   1.747303   0.000000
    26  C    1.430000   9.662185  10.539282   9.703209   9.769170
    27  H    2.051796  10.584577  11.429615  10.666973  10.702024
    28  H    2.051796   9.907812  10.842321   9.886478   9.943515
    29  H    2.051796   9.350145  10.204568   9.318770   9.564319
    30  N    4.340085   5.683434   6.240972   6.253762   5.821088
    31  H    4.522988   5.935046   6.418817   6.446845   6.239054
    32  C    6.719906   3.701189   3.996145   4.548327   3.849620
    33  H    7.327462   2.733182   2.966502   3.591581   3.052281
    34  H    7.092516   3.976253   4.246154   4.919679   3.850045
    35  H    6.998561   4.474895   4.595190   5.312774   4.750353
    36  C    2.542079   7.999581   8.681573   8.457925   8.008288
    37  H    2.123833   8.477936   9.235236   8.891091   8.388725
    38  H    2.402612   8.528103   9.187276   8.926130   8.649760
    39  H    3.570857   8.221614   8.816026   8.795287   8.192300
    40  N    6.257279   4.656374   5.721294   4.441495   4.308519
    41  O    7.484239   5.117521   6.135271   4.745609   4.670256
    42  O    6.031058   4.442153   5.470089   4.508282   3.943515
    43  H    4.347343   5.118679   6.086289   5.346139   4.838041
                   26         27         28         29         30
    26  C    0.000000
    27  H    1.070000   0.000000
    28  H    1.070000   1.747303   0.000000
    29  H    1.070000   1.747303   1.747303   0.000000
    30  N    5.575040   6.142425   6.229151   5.553239   0.000000
    31  H    5.610166   6.119673   6.373190   5.437084   1.000000
    32  C    7.911817   8.600771   8.437117   7.787581   2.595442
    33  H    8.428823   9.186787   8.906239   8.207710   3.425856
    34  H    8.368869   9.046537   8.834093   8.364436   3.083892
    35  H    8.176851   8.770752   8.811975   8.021845   2.685101
    36  C    3.879092   4.161457   4.585496   4.264533   2.595442
    37  H    3.489806   3.765781   4.020659   4.109972   3.429479
    38  H    3.489870   3.612950   4.373471   3.757061   3.075826
    39  H    4.889849   5.066974   5.593277   5.299801   2.689723
    40  N    6.922266   7.962374   6.701544   6.853165   5.728970
    41  O    8.055193   9.103145   7.722782   7.984567   7.052553
    42  O    6.911828   7.898909   6.779584   6.961265   5.048939
    43  H    5.381737   6.309132   5.410784   5.504773   3.565556
                   31         32         33         34         35
    31  H    0.000000
    32  C    2.934140   0.000000
    33  H    3.636627   1.070000   0.000000
    34  H    3.645831   1.070000   1.747303   0.000000
    35  H    2.749760   1.070000   1.747303   1.747303   0.000000
    36  C    2.934139   5.111253   5.969589   5.351367   5.185683
    37  H    3.893289   5.821080   6.651495   5.955779   6.027976
    38  H    3.070309   5.669141   6.475916   6.056995   5.618088
    39  H    3.081205   5.014010   5.979163   5.125324   4.966431
    40  N    6.292159   5.642948   5.438198   5.764650   6.633167
    41  O    7.617519   6.732062   6.411319   6.782163   7.753841
    42  O    5.744905   4.890246   4.826450   4.851474   5.909711
    43  H    4.296627   4.245108   4.517877   4.328627   5.109308
                   36         37         38         39         40
    36  C    0.000000
    37  H    1.070000   0.000000
    38  H    1.070000   1.747303   0.000000
    39  H    1.070000   1.747303   1.747303   0.000000
    40  N    6.674809   6.567529   7.283597   7.300884   0.000000
    41  O    8.003181   7.842245   8.624005   8.616749   1.360000
    42  O    6.051837   5.958860   6.785759   6.548560   1.196800
    43  H    4.245108   4.170989   4.976460   4.805305   2.519064
                   41         42         43
    41  O    0.000000
    42  O    2.215757   0.000000
    43  H    3.812793   1.819133   0.000000
 Stoichiometry    C17H18N2O6
 Framework group  C1[X(C17H18N2O6)]
 Deg. of freedom   123
 Full point group                 C1      NOp   1
 Largest Abelian subgroup         C1      NOp   1
 Largest concise Abelian subgroup C1      NOp   1
                         Standard orientation:                         
 ---------------------------------------------------------------------
 Center     Atomic      Atomic             Coordinates (Angstroms)
 Number     Number       Type             X           Y           Z
 ---------------------------------------------------------------------
      1          6           0        0.748974   -1.366076   -1.335706
      2          6           0       -0.010712   -1.070972   -0.195657
      3          6           0       -0.937097   -2.003738    0.289815
      4          6           0       -1.103794   -3.231607   -0.364762
      5          6           0       -0.344107   -3.526711   -1.504810
      6          6           0        0.582277   -2.593945   -1.990283
      7          1           0        1.456287   -0.653888   -1.706376
      8          1           0       -1.811111   -3.943793    0.005906
      9          1           0       -0.471385   -4.464216   -2.004595
     10          1           0        1.162313   -2.819263   -2.860737
     11          6           0        0.172472    0.278334    0.523659
     12          6           0        1.621398    0.757999    0.376347
     13          6           0       -0.810391    1.310791   -0.041299
     14          6           0        1.917691    2.073077    0.235763
     15          6           0       -0.464534    2.614602   -0.173371
     16          6           0       -2.226890    0.860761   -0.444541
     17          8           0       -2.563899   -0.345044   -0.317931
     18          8           0       -3.159246    1.813109   -0.962851
     19          6           0        2.764075   -0.273781    0.412631
     20          8           0        2.503210   -1.496895    0.552317
     21          8           0        4.121572    0.158039    0.287589
     22          6           0       -4.488795    1.414249   -0.619182
     23          1           0       -5.186432    2.126845   -1.007009
     24          1           0       -4.692027    0.451253   -1.038986
     25          1           0       -4.582764    1.366202    0.445600
     26          6           0        4.894452   -0.872784   -0.332862
     27          1           0        5.910200   -0.549674   -0.426425
     28          1           0        4.855550   -1.757874    0.267141
     29          1           0        4.495913   -1.082120   -1.303555
     30          7           0        0.940835    3.057391   -0.271888
     31          1           0        1.138637    3.194194   -1.242536
     32          6           0       -1.580381    3.673247   -0.249246
     33          1           0       -2.454974    3.238887   -0.686645
     34          1           0       -1.809664    4.021052    0.736330
     35          1           0       -1.251800    4.495353   -0.850142
     36          6           0        3.335263    2.555827    0.594989
     37          1           0        3.734524    1.941144    1.374511
     38          1           0        3.963896    2.490116   -0.268378
     39          1           0        3.292304    3.571639    0.928426
     40          7           0       -1.733973   -1.694187    1.485669
     41          8           0       -2.632992   -2.599395    1.956798
     42          8           0       -1.591613   -0.645582    2.044679
     43          1           0       -0.033158    0.162221    1.567275
 ---------------------------------------------------------------------
 Rotational constants (GHZ):           0.2925296           0.2148965           0.1478855
 Leave Link  202 at Wed Jun  4 11:39:58 2025, MaxMem=  2147483648 cpu:               0.0 elap:               0.0
 (Enter /Apps/Gaussian/G16//g16/l301.exe)
 Standard basis: 6-311++G(2d,3p) (5D, 7F)
 Ernie: Thresh=  0.10000D-02 Tol=  0.10000D-05 Strict=F.
 There are   959 symmetry adapted cartesian basis functions of A   symmetry.
 There are   909 symmetry adapted basis functions of A   symmetry.
   909 basis functions,  1320 primitive gaussians,   959 cartesian basis functions
    91 alpha electrons       91 beta electrons
       nuclear repulsion energy      2358.3174496920 Hartrees.
 IExCor=  402 DFT=T Ex+Corr=B3LYP ExCW=0 ScaHFX=  0.200000
 ScaDFX=  0.800000  0.720000  1.000000  0.810000 ScalE2=  1.000000  1.000000
 IRadAn=      5 IRanWt=     -1 IRanGd=            0 ICorTp=0 IEmpDi=  4
 NAtoms=   43 NActive=   43 NUniq=   43 SFac= 1.00D+00 NAtFMM=   60 NAOKFM=F Big=F
 Integral buffers will be    131072 words long.
 Raffenetti 2 integral format.
 Two-electron integral symmetry is turned on.
 Leave Link  301 at Wed Jun  4 11:39:58 2025, MaxMem=  2147483648 cpu:               0.4 elap:               0.0
 (Enter /Apps/Gaussian/G16//g16/l302.exe)
 NPDir=0 NMtPBC=     1 NCelOv=     1 NCel=       1 NClECP=     1 NCelD=      1
         NCelK=      1 NCelE2=     1 NClLst=     1 CellRange=     0.0.
 One-electron integrals computed using PRISM.
 One-electron integral symmetry used in STVInt
 NBasis=   909 RedAO= T EigKep=  1.30D-06  NBF=   909
 NBsUse=   903 1.00D-06 EigRej=  6.41D-07 NBFU=   903
 Precomputing XC quadrature grid using
 IXCGrd= 4 IRadAn=           5 IRanWt=          -1 IRanGd=           0 AccXCQ= 0.00D+00.
 Generated NRdTot=       0 NPtTot=           0 NUsed=           0 NTot=          32
 NSgBfM=   945   945   945   945   945 MxSgAt=    43 MxSgA2=    43.
 Leave Link  302 at Wed Jun  4 11:39:59 2025, MaxMem=  2147483648 cpu:              13.0 elap:               0.9
 (Enter /Apps/Gaussian/G16//g16/l303.exe)
 DipDrv:  MaxL=1.
 Leave Link  303 at Wed Jun  4 11:40:00 2025, MaxMem=  2147483648 cpu:               1.3 elap:               0.1
 (Enter /Apps/Gaussian/G16//g16/l401.exe)
 ExpMin= 3.60D-02 ExpMax= 8.59D+03 ExpMxC= 1.30D+03 IAcc=3 IRadAn=         5 AccDes= 0.00D+00
 Harris functional with IExCor=  402 and IRadAn=       5 diagonalized for initial guess.
 HarFok:  IExCor=  402 AccDes= 0.00D+00 IRadAn=         5 IDoV= 1 UseB2=F ITyADJ=14
 ICtDFT=  3500011 ScaDFX=  1.000000  1.000000  1.000000  1.000000
 FoFCou: FMM=F IPFlag=           0 FMFlag=      100000 FMFlg1=           0
         NFxFlg=           0 DoJE=T BraDBF=F KetDBF=T FulRan=T
         wScrn=  0.000000 ICntrl=       500 IOpCl=  0 I1Cent=   200000004 NGrid=           0
         NMat0=    1 NMatS0=      1 NMatT0=    0 NMatD0=    1 NMtDS0=    0 NMtDT0=    0
 Petite list used in FoFCou.
 Harris En= -1219.73801232266    
 JPrj=0 DoOrth=F DoCkMO=F.
 Leave Link  401 at Wed Jun  4 11:40:05 2025, MaxMem=  2147483648 cpu:              79.9 elap:               5.7
 (Enter /Apps/Gaussian/G16//g16/l502.exe)
 Integral symmetry usage will be decided dynamically.
 Closed shell SCF:
 Using DIIS extrapolation, IDIIS=  1040.
 NGot=  2147483648 LenX=  2145622391 LenY=  2144701751
 Requested convergence on RMS density matrix=1.00D-08 within 128 cycles.
 Requested convergence on MAX density matrix=1.00D-06.
 Requested convergence on             energy=1.00D-06.
 No special actions if energy rises.
 Fock matrices will be formed incrementally for  20 cycles.

 Cycle   1  Pass 1  IDiag  1:
 FoFJK:  IHMeth= 1 ICntrl=       0 DoSepK=F KAlg= 0 I1Cent=           0 FoldK=F
 IRaf= 810000000 NMat=       1 IRICut=       1 DoRegI=T DoRafI=F ISym2E= 0 IDoP0=0 IntGTp=1.
 FoFCou: FMM=F IPFlag=           0 FMFlag=      100000 FMFlg1=           0
         NFxFlg=           0 DoJE=F BraDBF=F KetDBF=F FulRan=T
         wScrn=  0.000000 ICntrl=         0 IOpCl=  0 I1Cent=           0 NGrid=           0
         NMat0=    1 NMatS0=      1 NMatT0=    0 NMatD0=    1 NMtDS0=    0 NMtDT0=    0
 Symmetry not used in FoFCou.
 E= -1218.85144125422    
 DIIS: error= 1.25D-02 at cycle   1 NSaved=   1.
 NSaved= 1 IEnMin= 1 EnMin= -1218.85144125422     IErMin= 1 ErrMin= 1.25D-02
 ErrMax= 1.25D-02  0.00D+00 EMaxC= 1.00D-01 BMatC= 9.80D-01 BMatP= 9.80D-01
 IDIUse=3 WtCom= 8.75D-01 WtEn= 1.25D-01
 Coeff-Com:  0.100D+01
 Coeff-En:   0.100D+01
 Coeff:      0.100D+01
 Gap=     0.137 Goal=   None    Shift=    0.000
 GapD=    0.137 DampG=1.000 DampE=0.500 DampFc=0.5000 IDamp=-1.
 Damping current iteration by 5.00D-01
 RMSDP=8.39D-03 MaxDP=7.78D-01              OVMax= 3.38D-01

 Cycle   2  Pass 1  IDiag  1:
 RMSU=  4.16D-03    CP:  1.02D+00
 E= -1218.91089800126     Delta-E=       -0.059456747033 Rises=F Damp=T
 DIIS: error= 1.07D-02 at cycle   2 NSaved=   2.
 NSaved= 2 IEnMin= 2 EnMin= -1218.91089800126     IErMin= 2 ErrMin= 1.07D-02
 ErrMax= 1.07D-02  0.00D+00 EMaxC= 1.00D-01 BMatC= 2.77D-01 BMatP= 9.80D-01
 IDIUse=3 WtCom= 8.93D-01 WtEn= 1.07D-01
 Coeff-Com:  0.297D+00 0.703D+00
 Coeff-En:   0.467D+00 0.533D+00
 Coeff:      0.315D+00 0.685D+00
 Gap=     0.113 Goal=   None    Shift=    0.000
 RMSDP=4.17D-03 MaxDP=3.82D-01 DE=-5.95D-02 OVMax= 2.34D-01

 Cycle   3  Pass 1  IDiag  1:
 RMSU=  2.83D-03    CP:  9.25D-01  4.49D-01
 E= -1219.35014857861     Delta-E=       -0.439250577354 Rises=F Damp=F
 DIIS: error= 1.27D-02 at cycle   3 NSaved=   3.
 NSaved= 3 IEnMin= 3 EnMin= -1219.35014857861     IErMin= 2 ErrMin= 1.07D-02
 ErrMax= 1.27D-02  0.00D+00 EMaxC= 1.00D-01 BMatC= 3.20D-01 BMatP= 2.77D-01
 IDIUse=2 WtCom= 0.00D+00 WtEn= 1.00D+00
 Coeff-En:   0.000D+00 0.142D+00 0.858D+00
 Coeff:      0.000D+00 0.142D+00 0.858D+00
 Gap=     0.155 Goal=   None    Shift=    0.000
 RMSDP=7.54D-03 MaxDP=8.02D-01 DE=-4.39D-01 OVMax= 9.75D-01

 Cycle   4  Pass 1  IDiag  1:
 RMSU=  7.37D-03    CP:  8.76D-01  2.59D-01  6.76D-01
 E= -1215.42374731412     Delta-E=        3.926401264490 Rises=F Damp=F
 DIIS: error= 4.26D-02 at cycle   4 NSaved=   4.
 NSaved= 4 IEnMin= 3 EnMin= -1219.35014857861     IErMin= 2 ErrMin= 1.07D-02
 ErrMax= 4.26D-02  0.00D+00 EMaxC= 1.00D-01 BMatC= 2.85D+00 BMatP= 2.77D-01
 IDIUse=2 WtCom= 0.00D+00 WtEn= 1.00D+00
 Coeff-En:   0.000D+00 0.000D+00 0.887D+00 0.113D+00
 Coeff:      0.000D+00 0.000D+00 0.887D+00 0.113D+00
 Gap=    -0.146 Goal=   None    Shift=    0.000
 RMSDP=7.43D-03 MaxDP=8.25D-01 DE= 3.93D+00 OVMax= 8.89D-01

 Cycle   5  Pass 1  IDiag  1:
 RMSU=  2.10D-03    CP:  9.73D-01  1.01D+00  8.74D-02  2.06D-01
 E= -1219.03901812927     Delta-E=       -3.615270815155 Rises=F Damp=F
 DIIS: error= 1.82D-02 at cycle   5 NSaved=   5.
 NSaved= 5 IEnMin= 3 EnMin= -1219.35014857861     IErMin= 2 ErrMin= 1.07D-02
 ErrMax= 1.82D-02  0.00D+00 EMaxC= 1.00D-01 BMatC= 7.38D-01 BMatP= 2.77D-01
 IDIUse=2 WtCom= 0.00D+00 WtEn= 1.00D+00
 Coeff-En:   0.000D+00 0.000D+00 0.632D+00 0.000D+00 0.368D+00
 Coeff:      0.000D+00 0.000D+00 0.632D+00 0.000D+00 0.368D+00
 Gap=     0.193 Goal=   None    Shift=    0.000
 RMSDP=2.62D-03 MaxDP=2.25D-01 DE=-3.62D+00 OVMax= 1.86D-01

 Cycle   6  Pass 1  IDiag  1:
 RMSU=  1.06D-03    CP:  9.53D-01  6.52D-01  5.41D-01  1.09D-01  4.73D-01
 E= -1219.57743606942     Delta-E=       -0.538417940150 Rises=F Damp=F
 DIIS: error= 5.25D-03 at cycle   6 NSaved=   6.
 NSaved= 6 IEnMin= 6 EnMin= -1219.57743606942     IErMin= 6 ErrMin= 5.25D-03
 ErrMax= 5.25D-03  0.00D+00 EMaxC= 1.00D-01 BMatC= 4.44D-02 BMatP= 2.77D-01
 IDIUse=3 WtCom= 9.48D-01 WtEn= 5.25D-02
 Coeff-Com:  0.173D-01 0.689D-01 0.348D+00-0.201D-01 0.165D+00 0.421D+00
 Coeff-En:   0.000D+00 0.000D+00 0.151D+00 0.000D+00 0.000D+00 0.849D+00
 Coeff:      0.164D-01 0.653D-01 0.338D+00-0.190D-01 0.156D+00 0.443D+00
 Gap=     0.185 Goal=   None    Shift=    0.000
 RMSDP=7.84D-04 MaxDP=9.41D-02 DE=-5.38D-01 OVMax= 7.45D-02

 Cycle   7  Pass 1  IDiag  1:
 RMSU=  4.22D-04    CP:  9.35D-01  6.56D-01  6.35D-01  9.41D-02  4.01D-01
                    CP:  5.82D-01
 E= -1219.61309931110     Delta-E=       -0.035663241672 Rises=F Damp=F
 DIIS: error= 1.24D-03 at cycle   7 NSaved=   7.
 NSaved= 7 IEnMin= 7 EnMin= -1219.61309931110     IErMin= 7 ErrMin= 1.24D-03
 ErrMax= 1.24D-03  0.00D+00 EMaxC= 1.00D-01 BMatC= 4.47D-03 BMatP= 4.44D-02
 IDIUse=3 WtCom= 9.88D-01 WtEn= 1.24D-02
 Coeff-Com: -0.116D-02 0.199D-01 0.136D+00-0.109D-01 0.421D-01 0.282D+00
 Coeff-Com:  0.532D+00
 Coeff-En:   0.000D+00 0.000D+00 0.000D+00 0.000D+00 0.000D+00 0.247D-02
 Coeff-En:   0.998D+00
 Coeff:     -0.115D-02 0.196D-01 0.134D+00-0.107D-01 0.416D-01 0.278D+00
 Coeff:      0.538D+00
 Gap=     0.144 Goal=   None    Shift=    0.000
 RMSDP=2.96D-04 MaxDP=2.90D-02 DE=-3.57D-02 OVMax= 1.96D-02

 Cycle   8  Pass 1  IDiag  1:
 RMSU=  2.27D-04    CP:  9.35D-01  6.53D-01  6.25D-01  8.62D-02  4.15D-01
                    CP:  5.74D-01  5.87D-01
 E= -1219.61498646313     Delta-E=       -0.001887152036 Rises=F Damp=F
 DIIS: error= 9.31D-04 at cycle   8 NSaved=   8.
 NSaved= 8 IEnMin= 8 EnMin= -1219.61498646313     IErMin= 8 ErrMin= 9.31D-04
 ErrMax= 9.31D-04  0.00D+00 EMaxC= 1.00D-01 BMatC= 2.02D-03 BMatP= 4.47D-03
 IDIUse=3 WtCom= 9.91D-01 WtEn= 9.31D-03
 Coeff-Com: -0.794D-03 0.396D-02 0.206D-01-0.172D-02-0.126D-01 0.530D-01
 Coeff-Com:  0.408D+00 0.530D+00
 Coeff-En:   0.000D+00 0.000D+00 0.000D+00 0.000D+00 0.000D+00 0.000D+00
 Coeff-En:   0.346D+00 0.654D+00
 Coeff:     -0.787D-03 0.392D-02 0.204D-01-0.171D-02-0.125D-01 0.525D-01
 Coeff:      0.407D+00 0.531D+00
 Gap=     0.145 Goal=   None    Shift=    0.000
 RMSDP=1.66D-04 MaxDP=1.40D-02 DE=-1.89D-03 OVMax= 1.62D-02

 Cycle   9  Pass 1  IDiag  1:
 RMSU=  9.77D-05    CP:  9.34D-01  6.42D-01  6.44D-01  8.84D-02  3.97D-01
                    CP:  5.55D-01  6.91D-01  6.05D-01
 E= -1219.61644995359     Delta-E=       -0.001463490461 Rises=F Damp=F
 DIIS: error= 2.06D-04 at cycle   9 NSaved=   9.
 NSaved= 9 IEnMin= 9 EnMin= -1219.61644995359     IErMin= 9 ErrMin= 2.06D-04
 ErrMax= 2.06D-04  0.00D+00 EMaxC= 1.00D-01 BMatC= 1.49D-04 BMatP= 2.02D-03
 IDIUse=3 WtCom= 9.98D-01 WtEn= 2.06D-03
 Coeff-Com: -0.285D-03 0.858D-03 0.714D-02-0.459D-03-0.993D-02 0.198D-01
 Coeff-Com:  0.244D+00 0.356D+00 0.383D+00
 Coeff-En:   0.000D+00 0.000D+00 0.000D+00 0.000D+00 0.000D+00 0.000D+00
 Coeff-En:   0.000D+00 0.218D-01 0.978D+00
 Coeff:     -0.285D-03 0.856D-03 0.712D-02-0.458D-03-0.991D-02 0.197D-01
 Coeff:      0.243D+00 0.356D+00 0.384D+00
 Gap=     0.144 Goal=   None    Shift=    0.000
 RMSDP=5.05D-05 MaxDP=5.69D-03 DE=-1.46D-03 OVMax= 4.55D-03

 Cycle  10  Pass 1  IDiag  1:
 RMSU=  3.13D-05    CP:  9.33D-01  6.45D-01  6.43D-01  8.73D-02  4.03D-01
                    CP:  5.56D-01  7.13D-01  6.57D-01  7.27D-01
 E= -1219.61658794473     Delta-E=       -0.000137991135 Rises=F Damp=F
 DIIS: error= 5.27D-05 at cycle  10 NSaved=  10.
 NSaved=10 IEnMin=10 EnMin= -1219.61658794473     IErMin=10 ErrMin= 5.27D-05
 ErrMax= 5.27D-05  0.00D+00 EMaxC= 1.00D-01 BMatC= 1.07D-05 BMatP= 1.49D-04
 IDIUse=1 WtCom= 1.00D+00 WtEn= 0.00D+00
 Coeff-Com: -0.872D-04 0.926D-05 0.218D-02-0.165D-03-0.465D-02 0.735D-02
 Coeff-Com:  0.105D+00 0.163D+00 0.243D+00 0.484D+00
 Coeff:     -0.872D-04 0.926D-05 0.218D-02-0.165D-03-0.465D-02 0.735D-02
 Coeff:      0.105D+00 0.163D+00 0.243D+00 0.484D+00
 Gap=     0.145 Goal=   None    Shift=    0.000
 RMSDP=1.63D-05 MaxDP=1.90D-03 DE=-1.38D-04 OVMax= 9.89D-04

 Cycle  11  Pass 1  IDiag  1:
 RMSU=  1.35D-05    CP:  9.34D-01  6.44D-01  6.43D-01  8.77D-02  4.02D-01
                    CP:  5.57D-01  7.13D-01  6.56D-01  7.30D-01  7.72D-01
 E= -1219.61659620964     Delta-E=       -0.000008264910 Rises=F Damp=F
 DIIS: error= 2.31D-05 at cycle  11 NSaved=  11.
 NSaved=11 IEnMin=11 EnMin= -1219.61659620964     IErMin=11 ErrMin= 2.31D-05
 ErrMax= 2.31D-05  0.00D+00 EMaxC= 1.00D-01 BMatC= 2.56D-06 BMatP= 1.07D-05
 IDIUse=1 WtCom= 1.00D+00 WtEn= 0.00D+00
 Coeff-Com: -0.346D-04-0.409D-04 0.112D-03 0.558D-04-0.118D-02 0.176D-02
 Coeff-Com:  0.188D-01 0.342D-01 0.812D-01 0.347D+00 0.518D+00
 Coeff:     -0.346D-04-0.409D-04 0.112D-03 0.558D-04-0.118D-02 0.176D-02
 Coeff:      0.188D-01 0.342D-01 0.812D-01 0.347D+00 0.518D+00
 Gap=     0.145 Goal=   None    Shift=    0.000
 RMSDP=6.97D-06 MaxDP=1.07D-03 DE=-8.26D-06 OVMax= 3.05D-04

 Cycle  12  Pass 1  IDiag  1:
 RMSU=  4.57D-06    CP:  9.34D-01  6.44D-01  6.42D-01  8.79D-02  4.02D-01
                    CP:  5.60D-01  7.10D-01  6.58D-01  7.30D-01  7.79D-01
                    CP:  8.56D-01
 E= -1219.61659811642     Delta-E=       -0.000001906777 Rises=F Damp=F
 DIIS: error= 7.79D-06 at cycle  12 NSaved=  12.
 NSaved=12 IEnMin=12 EnMin= -1219.61659811642     IErMin=12 ErrMin= 7.79D-06
 ErrMax= 7.79D-06  0.00D+00 EMaxC= 1.00D-01 BMatC= 2.65D-07 BMatP= 2.56D-06
 IDIUse=1 WtCom= 1.00D+00 WtEn= 0.00D+00
 Coeff-Com: -0.601D-04 0.397D-04-0.214D-03 0.355D-04-0.293D-03 0.789D-03
 Coeff-Com:  0.111D-02 0.513D-02 0.196D-01 0.155D+00 0.282D+00 0.537D+00
 Coeff:     -0.601D-04 0.397D-04-0.214D-03 0.355D-04-0.293D-03 0.789D-03
 Coeff:      0.111D-02 0.513D-02 0.196D-01 0.155D+00 0.282D+00 0.537D+00
 Gap=     0.145 Goal=   None    Shift=    0.000
 RMSDP=2.39D-06 MaxDP=1.52D-04 DE=-1.91D-06 OVMax= 1.12D-04

 Cycle  13  Pass 1  IDiag  1:
 RMSU=  1.73D-06    CP:  9.34D-01  6.44D-01  6.43D-01  8.78D-02  4.02D-01
                    CP:  5.61D-01  7.11D-01  6.59D-01  7.32D-01  8.06D-01
                    CP:  8.48D-01  8.60D-01
 E= -1219.61659829915     Delta-E=       -0.000000182734 Rises=F Damp=F
 DIIS: error= 4.92D-06 at cycle  13 NSaved=  13.
 NSaved=13 IEnMin=13 EnMin= -1219.61659829915     IErMin=13 ErrMin= 4.92D-06
 ErrMax= 4.92D-06  0.00D+00 EMaxC= 1.00D-01 BMatC= 6.46D-08 BMatP= 2.65D-07
 IDIUse=1 WtCom= 1.00D+00 WtEn= 0.00D+00
 Coeff-Com: -0.531D-04 0.238D-04-0.176D-03 0.986D-05 0.814D-04 0.343D-03
 Coeff-Com: -0.274D-02-0.288D-02-0.570D-02 0.228D-01 0.496D-01 0.324D+00
 Coeff-Com:  0.615D+00
 Coeff:     -0.531D-04 0.238D-04-0.176D-03 0.986D-05 0.814D-04 0.343D-03
 Coeff:     -0.274D-02-0.288D-02-0.570D-02 0.228D-01 0.496D-01 0.324D+00
 Coeff:      0.615D+00
 Gap=     0.145 Goal=   None    Shift=    0.000
 RMSDP=1.02D-06 MaxDP=1.05D-04 DE=-1.83D-07 OVMax= 4.38D-05

 Cycle  14  Pass 1  IDiag  1:
 RMSU=  7.87D-07    CP:  9.34D-01  6.44D-01  6.43D-01  8.78D-02  4.02D-01
                    CP:  5.61D-01  7.11D-01  6.60D-01  7.32D-01  8.14D-01
                    CP:  8.71D-01  8.57D-01  9.23D-01
 E= -1219.61659834588     Delta-E=       -0.000000046727 Rises=F Damp=F
 DIIS: error= 1.31D-06 at cycle  14 NSaved=  14.
 NSaved=14 IEnMin=14 EnMin= -1219.61659834588     IErMin=14 ErrMin= 1.31D-06
 ErrMax= 1.31D-06  0.00D+00 EMaxC= 1.00D-01 BMatC= 7.57D-09 BMatP= 6.46D-08
 IDIUse=1 WtCom= 1.00D+00 WtEn= 0.00D+00
 Coeff-Com: -0.289D-04 0.279D-04-0.118D-03 0.359D-05 0.579D-04 0.112D-03
 Coeff-Com: -0.161D-02-0.172D-02-0.465D-02-0.102D-02 0.686D-03 0.127D+00
 Coeff-Com:  0.337D+00 0.544D+00
 Coeff:     -0.289D-04 0.279D-04-0.118D-03 0.359D-05 0.579D-04 0.112D-03
 Coeff:     -0.161D-02-0.172D-02-0.465D-02-0.102D-02 0.686D-03 0.127D+00
 Coeff:      0.337D+00 0.544D+00
 Gap=     0.145 Goal=   None    Shift=    0.000
 RMSDP=4.33D-07 MaxDP=5.87D-05 DE=-4.67D-08 OVMax= 2.73D-05

 Cycle  15  Pass 1  IDiag  1:
 RMSU=  2.44D-07    CP:  9.34D-01  6.44D-01  6.43D-01  8.78D-02  4.02D-01
                    CP:  5.61D-01  7.11D-01  6.60D-01  7.32D-01  8.15D-01
                    CP:  8.70D-01  8.77D-01  9.19D-01  8.25D-01
 E= -1219.61659835079     Delta-E=       -0.000000004915 Rises=F Damp=F
 DIIS: error= 9.34D-07 at cycle  15 NSaved=  15.
 NSaved=15 IEnMin=15 EnMin= -1219.61659835079     IErMin=15 ErrMin= 9.34D-07
 ErrMax= 9.34D-07  0.00D+00 EMaxC= 1.00D-01 BMatC= 2.13D-09 BMatP= 7.57D-09
 IDIUse=1 WtCom= 1.00D+00 WtEn= 0.00D+00
 Coeff-Com: -0.126D-04 0.176D-04-0.539D-04 0.263D-06 0.292D-04 0.404D-04
 Coeff-Com: -0.589D-03-0.586D-03-0.220D-02-0.567D-02-0.100D-01 0.276D-01
 Coeff-Com:  0.115D+00 0.377D+00 0.499D+00
 Coeff:     -0.126D-04 0.176D-04-0.539D-04 0.263D-06 0.292D-04 0.404D-04
 Coeff:     -0.589D-03-0.586D-03-0.220D-02-0.567D-02-0.100D-01 0.276D-01
 Coeff:      0.115D+00 0.377D+00 0.499D+00
 Gap=     0.145 Goal=   None    Shift=    0.000
 RMSDP=1.76D-07 MaxDP=2.10D-05 DE=-4.92D-09 OVMax= 1.33D-05

 Cycle  16  Pass 1  IDiag  1:
 RMSU=  9.15D-08    CP:  9.34D-01  6.44D-01  6.43D-01  8.78D-02  4.02D-01
                    CP:  5.61D-01  7.11D-01  6.60D-01  7.32D-01  8.14D-01
                    CP:  8.73D-01  8.83D-01  9.47D-01  8.61D-01  7.17D-01
 E= -1219.61659835256     Delta-E=       -0.000000001769 Rises=F Damp=F
 DIIS: error= 3.77D-07 at cycle  16 NSaved=  16.
 NSaved=16 IEnMin=16 EnMin= -1219.61659835256     IErMin=16 ErrMin= 3.77D-07
 ErrMax= 3.77D-07  0.00D+00 EMaxC= 1.00D-01 BMatC= 2.08D-10 BMatP= 2.13D-09
 IDIUse=1 WtCom= 1.00D+00 WtEn= 0.00D+00
 Coeff-Com: -0.502D-05 0.510D-05-0.207D-04 0.513D-06 0.128D-04 0.178D-04
 Coeff-Com: -0.162D-03-0.110D-03-0.746D-03-0.325D-02-0.618D-02 0.161D-02
 Coeff-Com:  0.290D-01 0.168D+00 0.295D+00 0.517D+00
 Coeff:     -0.502D-05 0.510D-05-0.207D-04 0.513D-06 0.128D-04 0.178D-04
 Coeff:     -0.162D-03-0.110D-03-0.746D-03-0.325D-02-0.618D-02 0.161D-02
 Coeff:      0.290D-01 0.168D+00 0.295D+00 0.517D+00
 Gap=     0.145 Goal=   None    Shift=    0.000
 RMSDP=5.54D-08 MaxDP=6.97D-06 DE=-1.77D-09 OVMax= 3.05D-06

 Cycle  17  Pass 1  IDiag  1:
 RMSU=  3.11D-08    CP:  9.34D-01  6.44D-01  6.43D-01  8.78D-02  4.02D-01
                    CP:  5.61D-01  7.11D-01  6.60D-01  7.32D-01  8.14D-01
                    CP:  8.73D-01  8.85D-01  9.43D-01  8.54D-01  7.62D-01
                    CP:  8.15D-01
 E= -1219.61659835270     Delta-E=       -0.000000000140 Rises=F Damp=F
 DIIS: error= 1.20D-07 at cycle  17 NSaved=  17.
 NSaved=17 IEnMin=17 EnMin= -1219.61659835270     IErMin=17 ErrMin= 1.20D-07
 ErrMax= 1.20D-07  0.00D+00 EMaxC= 1.00D-01 BMatC= 2.56D-11 BMatP= 2.08D-10
 IDIUse=1 WtCom= 1.00D+00 WtEn= 0.00D+00
 Coeff-Com: -0.130D-05 0.154D-05-0.446D-05 0.931D-07 0.262D-05 0.116D-04
 Coeff-Com: -0.181D-04 0.518D-05-0.139D-03-0.851D-03-0.170D-02-0.237D-02
 Coeff-Com: -0.124D-02 0.320D-01 0.704D-01 0.243D+00 0.661D+00
 Coeff:     -0.130D-05 0.154D-05-0.446D-05 0.931D-07 0.262D-05 0.116D-04
 Coeff:     -0.181D-04 0.518D-05-0.139D-03-0.851D-03-0.170D-02-0.237D-02
 Coeff:     -0.124D-02 0.320D-01 0.704D-01 0.243D+00 0.661D+00
 Gap=     0.145 Goal=   None    Shift=    0.000
 RMSDP=2.05D-08 MaxDP=1.95D-06 DE=-1.40D-10 OVMax= 8.50D-07

 Cycle  18  Pass 1  IDiag  1:
 RMSU=  9.11D-09    CP:  9.34D-01  6.44D-01  6.43D-01  8.78D-02  4.02D-01
                    CP:  5.61D-01  7.11D-01  6.60D-01  7.32D-01  8.15D-01
                    CP:  8.73D-01  8.85D-01  9.46D-01  8.63D-01  7.58D-01
                    CP:  8.21D-01  8.81D-01
 E= -1219.61659835271     Delta-E=       -0.000000000010 Rises=F Damp=F
 DIIS: error= 2.85D-08 at cycle  18 NSaved=  18.
 NSaved=18 IEnMin=18 EnMin= -1219.61659835271     IErMin=18 ErrMin= 2.85D-08
 ErrMax= 2.85D-08  0.00D+00 EMaxC= 1.00D-01 BMatC= 2.27D-12 BMatP= 2.56D-11
 IDIUse=1 WtCom= 1.00D+00 WtEn= 0.00D+00
 Coeff-Com: -0.432D-06 0.696D-06-0.113D-05 0.396D-08 0.168D-06 0.664D-05
 Coeff-Com:  0.434D-05 0.162D-04-0.264D-04-0.207D-03-0.476D-03-0.139D-02
 Coeff-Com: -0.305D-02 0.469D-02 0.145D-01 0.960D-01 0.398D+00 0.492D+00
 Coeff:     -0.432D-06 0.696D-06-0.113D-05 0.396D-08 0.168D-06 0.664D-05
 Coeff:      0.434D-05 0.162D-04-0.264D-04-0.207D-03-0.476D-03-0.139D-02
 Coeff:     -0.305D-02 0.469D-02 0.145D-01 0.960D-01 0.398D+00 0.492D+00
 Gap=     0.145 Goal=   None    Shift=    0.000
 RMSDP=4.74D-09 MaxDP=5.18D-07 DE=-9.55D-12 OVMax= 2.28D-07

 SCF Done:  E(RB3LYP) =  -1219.61659835     A.U. after   18 cycles
            NFock= 18  Conv=0.47D-08     -V/T= 2.0042
 KE= 1.214460684513D+03 PE=-7.567122574534D+03 EE= 2.774727841977D+03
 Leave Link  502 at Wed Jun  4 11:52:10 2025, MaxMem=  2147483648 cpu:           10146.1 elap:             724.9
 (Enter /Apps/Gaussian/G16//g16/l601.exe)
 Copying SCF densities to generalized density rwf, IOpCl= 0 IROHF=0.

 **********************************************************************

            Population analysis using the SCF density.

 **********************************************************************

 Orbital symmetries:
       Occupied  (A) (A) (A) (A) (A) (A) (A) (A) (A) (A) (A) (A)
                 (A) (A) (A) (A) (A) (A) (A) (A) (A) (A) (A) (A)
                 (A) (A) (A) (A) (A) (A) (A) (A) (A) (A) (A) (A)
                 (A) (A) (A) (A) (A) (A) (A) (A) (A) (A) (A) (A)
                 (A) (A) (A) (A) (A) (A) (A) (A) (A) (A) (A) (A)
                 (A) (A) (A) (A) (A) (A) (A) (A) (A) (A) (A) (A)
                 (A) (A) (A) (A) (A) (A) (A) (A) (A) (A) (A) (A)
                 (A) (A) (A) (A) (A) (A) (A)
       Virtual   (A) (A) (A) (A) (A) (A) (A) (A) (A) (A) (A) (A)
                 (A) (A) (A) (A) (A) (A) (A) (A) (A) (A) (A) (A)
                 (A) (A) (A) (A) (A) (A) (A) (A) (A) (A) (A) (A)
                 (A) (A) (A) (A) (A) (A) (A) (A) (A) (A) (A) (A)
                 (A) (A) (A) (A) (A) (A) (A) (A) (A) (A) (A) (A)
                 (A) (A) (A) (A) (A) (A) (A) (A) (A) (A) (A) (A)
                 (A) (A) (A) (A) (A) (A) (A) (A) (A) (A) (A) (A)
                 (A) (A) (A) (A) (A) (A) (A) (A) (A) (A) (A) (A)
                 (A) (A) (A) (A) (A) (A) (A) (A) (A) (A) (A) (A)
                 (A) (A) (A) (A) (A) (A) (A) (A) (A) (A) (A) (A)
                 (A) (A) (A) (A) (A) (A) (A) (A) (A) (A) (A) (A)
                 (A) (A) (A) (A) (A) (A) (A) (A) (A) (A) (A) (A)
                 (A) (A) (A) (A) (A) (A) (A) (A) (A) (A) (A) (A)
                 (A) (A) (A) (A) (A) (A) (A) (A) (A) (A) (A) (A)
                 (A) (A) (A) (A) (A) (A) (A) (A) (A) (A) (A) (A)
                 (A) (A) (A) (A) (A) (A) (A) (A) (A) (A) (A) (A)
                 (A) (A) (A) (A) (A) (A) (A) (A) (A) (A) (A) (A)
                 (A) (A) (A) (A) (A) (A) (A) (A) (A) (A) (A) (A)
                 (A) (A) (A) (A) (A) (A) (A) (A) (A) (A) (A) (A)
                 (A) (A) (A) (A) (A) (A) (A) (A) (A) (A) (A) (A)
                 (A) (A) (A) (A) (A) (A) (A) (A) (A) (A) (A) (A)
                 (A) (A) (A) (A) (A) (A) (A) (A) (A) (A) (A) (A)
                 (A) (A) (A) (A) (A) (A) (A) (A) (A) (A) (A) (A)
                 (A) (A) (A) (A) (A) (A) (A) (A) (A) (A) (A) (A)
                 (A) (A) (A) (A) (A) (A) (A) (A) (A) (A) (A) (A)
                 (A) (A) (A) (A) (A) (A) (A) (A) (A) (A) (A) (A)
                 (A) (A) (A) (A) (A) (A) (A) (A) (A) (A) (A) (A)
                 (A) (A) (A) (A) (A) (A) (A) (A) (A) (A) (A) (A)
                 (A) (A) (A) (A) (A) (A) (A) (A) (A) (A) (A) (A)
                 (A) (A) (A) (A) (A) (A) (A) (A) (A) (A) (A) (A)
                 (A) (A) (A) (A) (A) (A) (A) (A) (A) (A) (A) (A)
                 (A) (A) (A) (A) (A) (A) (A) (A) (A) (A) (A) (A)
                 (A) (A) (A) (A) (A) (A) (A) (A) (A) (A) (A) (A)
                 (A) (A) (A) (A) (A) (A) (A) (A) (A) (A) (A) (A)
                 (A) (A) (A) (A) (A) (A) (A) (A) (A) (A) (A) (A)
                 (A) (A) (A) (A) (A) (A) (A) (A) (A) (A) (A) (A)
                 (A) (A) (A) (A) (A) (A) (A) (A) (A) (A) (A) (A)
                 (A) (A) (A) (A) (A) (A) (A) (A) (A) (A) (A) (A)
                 (A) (A) (A) (A) (A) (A) (A) (A) (A) (A) (A) (A)
                 (A) (A) (A) (A) (A) (A) (A) (A) (A) (A) (A) (A)
                 (A) (A) (A) (A) (A) (A) (A) (A) (A) (A) (A) (A)
                 (A) (A) (A) (A) (A) (A) (A) (A) (A) (A) (A) (A)
                 (A) (A) (A) (A) (A) (A) (A) (A) (A) (A) (A) (A)
                 (A) (A) (A) (A) (A) (A) (A) (A) (A) (A) (A) (A)
                 (A) (A) (A) (A) (A) (A) (A) (A) (A) (A) (A) (A)
                 (A) (A) (A) (A) (A) (A) (A) (A) (A) (A) (A) (A)
                 (A) (A) (A) (A) (A) (A) (A) (A) (A) (A) (A) (A)
                 (A) (A) (A) (A) (A) (A) (A) (A) (A) (A) (A) (A)
                 (A) (A) (A) (A) (A) (A) (A) (A) (A) (A) (A) (A)
                 (A) (A) (A) (A) (A) (A) (A) (A) (A) (A) (A) (A)
                 (A) (A) (A) (A) (A) (A) (A) (A) (A) (A) (A) (A)
                 (A) (A) (A) (A) (A) (A) (A) (A) (A) (A) (A) (A)
                 (A) (A) (A) (A) (A) (A) (A) (A) (A) (A) (A) (A)
                 (A) (A) (A) (A) (A) (A) (A) (A) (A) (A) (A) (A)
                 (A) (A) (A) (A) (A) (A) (A) (A) (A) (A) (A) (A)
                 (A) (A) (A) (A) (A) (A) (A) (A) (A) (A) (A) (A)
                 (A) (A) (A) (A) (A) (A) (A) (A) (A) (A) (A) (A)
                 (A) (A) (A) (A) (A) (A) (A) (A) (A) (A) (A) (A)
                 (A) (A) (A) (A) (A) (A) (A) (A) (A) (A) (A) (A)
                 (A) (A) (A) (A) (A) (A) (A) (A) (A) (A) (A) (A)
                 (A) (A) (A) (A) (A) (A) (A) (A) (A) (A) (A) (A)
                 (A) (A) (A) (A) (A) (A) (A) (A) (A) (A) (A) (A)
                 (A) (A) (A) (A) (A) (A) (A) (A) (A) (A) (A) (A)
                 (A) (A) (A) (A) (A) (A) (A) (A) (A) (A) (A) (A)
                 (A) (A) (A) (A) (A) (A) (A) (A) (A) (A) (A) (A)
                 (A) (A) (A) (A) (A) (A) (A) (A) (A) (A) (A) (A)
                 (A) (A) (A) (A) (A) (A) (A) (A) (A) (A) (A) (A)
                 (A) (A) (A) (A) (A) (A) (A) (A)
 The electronic state is 1-A.
 Alpha  occ. eigenvalues --  -19.17782 -19.17776 -19.16244 -19.13100 -19.12574
 Alpha  occ. eigenvalues --  -19.12441 -14.53752 -14.36077 -10.33024 -10.32731
 Alpha  occ. eigenvalues --  -10.25481 -10.25379 -10.23262 -10.22228 -10.22024
 Alpha  occ. eigenvalues --  -10.21670 -10.21535 -10.21110 -10.20618 -10.18848
 Alpha  occ. eigenvalues --  -10.18813 -10.18652 -10.18350 -10.17643 -10.16113
 Alpha  occ. eigenvalues --   -1.21043  -1.09923  -1.09565  -1.02004  -1.01590
 Alpha  occ. eigenvalues --   -0.99265  -0.96060  -0.88507  -0.83681  -0.82858
 Alpha  occ. eigenvalues --   -0.80140  -0.77423  -0.74313  -0.73461  -0.72512
 Alpha  occ. eigenvalues --   -0.71048  -0.70173  -0.66754  -0.62621  -0.61752
 Alpha  occ. eigenvalues --   -0.61321  -0.60040  -0.57682  -0.55545  -0.55043
 Alpha  occ. eigenvalues --   -0.52847  -0.52325  -0.51424  -0.50953  -0.50436
 Alpha  occ. eigenvalues --   -0.49999  -0.49459  -0.48954  -0.48655  -0.48561
 Alpha  occ. eigenvalues --   -0.46877  -0.46136  -0.45188  -0.44472  -0.44172
 Alpha  occ. eigenvalues --   -0.43544  -0.43238  -0.42823  -0.42176  -0.41315
 Alpha  occ. eigenvalues --   -0.40561  -0.39669  -0.39531  -0.38453  -0.38331
 Alpha  occ. eigenvalues --   -0.37206  -0.36613  -0.36071  -0.35242  -0.33064
 Alpha  occ. eigenvalues --   -0.31478  -0.30792  -0.30713  -0.30220  -0.29664
 Alpha  occ. eigenvalues --   -0.29295  -0.27585  -0.27267  -0.25848  -0.24336
 Alpha  occ. eigenvalues --   -0.24247
 Alpha virt. eigenvalues --   -0.09742  -0.08417  -0.06794  -0.02506  -0.02309
 Alpha virt. eigenvalues --   -0.00951  -0.00292  -0.00037   0.00148   0.00909
 Alpha virt. eigenvalues --    0.01093   0.01741   0.01937   0.02498   0.02710
 Alpha virt. eigenvalues --    0.03050   0.03335   0.03397   0.03887   0.04214
 Alpha virt. eigenvalues --    0.04503   0.04834   0.04986   0.05592   0.06023
 Alpha virt. eigenvalues --    0.06237   0.06729   0.07229   0.07673   0.07922
 Alpha virt. eigenvalues --    0.08529   0.08597   0.09091   0.09447   0.09672
 Alpha virt. eigenvalues --    0.09801   0.10257   0.10711   0.10746   0.11028
 Alpha virt. eigenvalues --    0.11196   0.11386   0.11576   0.11587   0.11830
 Alpha virt. eigenvalues --    0.12044   0.12096   0.12458   0.12653   0.12955
 Alpha virt. eigenvalues --    0.12995   0.13464   0.13596   0.13973   0.14153
 Alpha virt. eigenvalues --    0.14363   0.14732   0.15062   0.15102   0.15371
 Alpha virt. eigenvalues --    0.15494   0.15681   0.15908   0.16197   0.16592
 Alpha virt. eigenvalues --    0.16655   0.16955   0.17526   0.17827   0.18058
 Alpha virt. eigenvalues --    0.18256   0.18430   0.18695   0.18827   0.19051
 Alpha virt. eigenvalues --    0.19423   0.19535   0.19800   0.19989   0.20459
 Alpha virt. eigenvalues --    0.20748   0.20999   0.21313   0.21793   0.22047
 Alpha virt. eigenvalues --    0.22622   0.22657   0.22729   0.23046   0.23519
 Alpha virt. eigenvalues --    0.23816   0.24111   0.24345   0.24918   0.25291
 Alpha virt. eigenvalues --    0.25422   0.25523   0.25706   0.26065   0.26596
 Alpha virt. eigenvalues --    0.26717   0.27043   0.27343   0.27696   0.28209
 Alpha virt. eigenvalues --    0.28222   0.28319   0.28871   0.29192   0.29316
 Alpha virt. eigenvalues --    0.29739   0.29979   0.30162   0.30376   0.30591
 Alpha virt. eigenvalues --    0.31022   0.31242   0.31357   0.31887   0.32215
 Alpha virt. eigenvalues --    0.32291   0.32410   0.33120   0.33163   0.33403
 Alpha virt. eigenvalues --    0.33620   0.33826   0.34087   0.34401   0.34430
 Alpha virt. eigenvalues --    0.34566   0.35204   0.35548   0.35996   0.36220
 Alpha virt. eigenvalues --    0.36552   0.36689   0.37190   0.37616   0.38012
[...]
 53,-0.00000269,-0.00000349,0.00000472,0.00000320,0.00000224,0.00000063
 ,0.00000133,0.00000411,-0.00025673,-0.00010968,0.00002794,0.00003139,-
 0.00000336,0.00000015,0.00001070,0.00002070,-0.00000171,0.00002786,0.0
 0005178,-0.00002460,0.00235121,0.00092928,0.00191465,-0.00197609,-0.00
 125430,-0.00037659,0.00009992,-0.00002565,-0.00006305,0.00001532,-0.00
 000214,0.00002101,-0.00002425,-0.00003975,-0.00001220,-0.00006479,-0.0
 0002575,0.00006863,0.05590123,0.11243081,-0.18717798,0.00416665,0.0086
 5633,-0.01069162,-0.00364313,-0.00644289,0.01122390,-0.06060647,-0.127
 31004,0.20332492,0.00744618,0.00344869,0.00145906,0.00103924,-0.011233
 25,-0.00203620,-0.09143046,0.01488025,0.00833113,-0.01556425,0.0032693
 5,0.02823351,0.00605584,0.00675878,0.00075207,-0.00067364,-0.00052641,
 -0.00086369,0.00089982,0.00047203,-0.00052773,-0.00238582,-0.00298871,
 -0.00218745,0.00026272,-0.00021718,0.00065617,-0.00110963,-0.00060593,
 -0.00063275,-0.00203914,-0.00148773,-0.00136962,-0.00103344,-0.0002451
 9,0.00144028,-0.00016117,-0.00015242,-0.00033382,-0.00020904,0.0005108
 5,-0.00029181,0.00067018,-0.00018428,0.00071595,0.00005122,-0.00095442
 ,-0.00004171,-0.00047648,0.00069458,0.00061588,0.00028871,0.00056397,0
 .00014567,0.00102734,0.00518084,-0.00415932,-0.00183617,-0.00310470,0.
 00221156,0.00059777,-0.00122778,0.00128179,-0.00011220,-0.00005919,-0.
 00020840,0.00000758,0.00003311,0.00000922,-0.00000888,-0.00001848,0.00
 001967,0.00001729,-0.00001566,0.00003256,-0.00012406,0.00004963,-0.000
 17688,0.00001721,-0.00007049,0.00006077,-0.00010374,0.00009488,0.00000
 960,-0.00006027,-0.00001293,-0.00013876,-0.00093730,-0.00045093,-0.000
 09326,0.00000849,-0.00008041,-0.00002246,-0.00005527,-0.00001502,-0.00
 005109,-0.00000951,-0.00003196,-0.00002213,-0.00000564,0.00004889,-0.0
 0000310,0.00003609,0.00001297,-0.00003144,0.00011850,-0.00004831,-0.00
 009403,-0.00000659,0.00005764,0.00001525,0.00002333,-0.00001754,-0.000
 10693,-0.00004878,-0.00005703,-0.00000864,0.31085683,0.00130900,-0.004
 97267,0.00534322,-0.01636690,0.00461516,0.02439081,0.01017553,-0.10173
 633,0.00901277,0.00505812,0.01673227,-0.02116350,0.00635804,-0.0047544
 6,-0.00327840,0.00117862,-0.00405578,0.00069511,-0.00075466,0.00021731
 ,0.00140630,0.00096258,-0.00417009,-0.00200226,0.00104885,0.00034283,-
 0.00148934,-0.00021176,-0.00040310,-0.00001275,-0.00160646,0.00205630,
 0.00031430,0.00065933,-0.00033501,-0.00027092,-0.00053285,0.00019573,-
 0.00270546,-0.00037277,0.00007034,-0.00035465,0.00178987,-0.00061638,0
 .00190139,0.00139729,-0.00521766,0.00332100,0.00063981,0.00384989,-0.0
 0333030,0.00060084,0.00297773,0.00043531,0.00280695,0.00062171,0.00108
 003,-0.00148039,-0.00364446,-0.00216495,-0.00245093,-0.00039141,-0.000
 28074,-0.00076332,-0.00027248,-0.00045686,0.00004298,0.00015486,-0.000
 01673,0.00005024,-0.00011245,0.00004846,0.00003246,-0.00014985,-0.0000
 0152,0.00073296,0.00105143,-0.00013792,-0.00007435,-0.00009478,-0.0000
 1875,-0.00007703,0.00002372,0.00004746,-0.00010616,-0.00015752,-0.0001
 6877,-0.00133969,-0.00036786,-0.00147556,-0.00007776,-0.00004453,0.000
 11218,-0.00027272,0.00024963,0.00010155,-0.00002821,-0.00001475,0.0000
 7549,0.00007347,0.00015686,-0.00004317,0.00001297,0.00008437,-0.000171
 58,-0.00007244,0.00023038,0.00001635,-0.00006374,0.00006107,-0.0000626
 2,-0.00003868,-0.00000562,-0.00006862,-0.00005253,0.00004320,-0.000071
 00,0.08197324,0.86695881,-0.00046884,0.00379089,0.00509587,0.00583642,
 0.01741404,-0.01836540,0.01154814,0.00571991,-0.09910656,0.01682769,-0
 .01407552,-0.02747570,0.00133422,-0.00276260,0.00713592,-0.00123309,0.
 00018819,0.00036065,0.00032955,-0.00048489,0.00082976,-0.00136237,0.00
 162936,0.00013886,-0.00000074,0.00049220,0.00053886,-0.00035943,-0.000
 19722,-0.00018533,-0.00335768,0.00053103,-0.00021562,0.00072288,0.0000
 2246,-0.00191723,0.00088982,-0.00048976,-0.00174577,0.00007632,0.00011
 589,-0.00043124,0.00030145,-0.00036567,0.00015011,0.00161658,-0.001788
 21,0.00340775,0.00055234,0.00140071,-0.00387795,-0.00054965,0.00072632
 ,-0.00047471,-0.00152126,-0.00137689,0.00140705,0.00016296,0.00045650,
 -0.00422836,0.00010713,0.00080186,-0.00027228,-0.00008924,-0.00008073,
 0.00032232,-0.00001624,0.00003106,-0.00004471,-0.00001454,-0.00005324,
 -0.00000432,-0.00000863,-0.00008476,-0.00010053,-0.00021898,-0.0000759
 9,0.00029332,0.00001480,0.00001420,-0.00003355,0.00010156,-0.00004044,
 -0.00005318,0.00001073,-0.00001539,0.00004602,-0.00012132,-0.00031964,
 -0.00081501,-0.00009663,0.00010872,0.00005105,-0.00016719,0.00022628,0
 .00028752,-0.00005177,0.00000798,0.00011678,0.00006600,0.00000733,-0.0
 0001935,-0.00009808,-0.00001285,-0.00003298,-0.00013397,0.00021799,0.0
 0013865,0.00000475,-0.00004351,-0.00002461,-0.00006188,-0.00000308,0.0
 0008594,0.00000988,0.00005360,0.00003760,-0.12979908,0.10806871,0.5980
 4329,-0.00063018,-0.00177745,0.00066624,-0.00203569,0.00345231,0.00395
 839,0.00633822,-0.02923576,0.01857754,-0.00205279,-0.00043773,0.001873
 77,0.00014405,-0.00141464,-0.00003595,0.00008201,-0.00035893,0.0004569
 9,-0.00037517,-0.00005677,0.00047056,-0.00136353,-0.00138211,0.0019205
 7,-0.00012739,0.00006568,-0.00006802,0.00006352,-0.00001128,0.00015974
 ,0.00019680,0.00013304,-0.00061028,0.00023587,0.00048039,-0.00048211,0
 .00018204,-0.00008755,0.00058519,0.00006525,-0.00025187,0.00021021,-0.
 00061410,0.00009023,-0.00065912,0.00012886,0.00055314,0.00001616,-0.00
 003017,-0.00023883,-0.00005894,-0.00017629,-0.00029261,-0.00014144,-0.
 00102658,-0.00206203,0.00140470,0.00040472,0.00254880,-0.00108170,0.00
 024609,0.00057737,-0.00046711,0.00009122,0.00003842,0.00009833,-0.0000
 0897,-0.00002421,-0.00000162,-0.00000641,0.00001110,-0.00000775,-0.000
 00504,0.00001560,-0.00001214,-0.00010668,-0.00025147,0.00011815,0.0000
 0295,0.00005524,-0.00002786,0.00007101,-0.00005517,-0.00001310,0.00005
 613,0.00003504,0.00011203,0.00059901,0.00028613,0.00026382,-0.00000085
 ,0.00004710,-0.00000065,0.00008112,-0.00002906,0.00001391,0.00000439,0
 .00001509,0.00000701,-0.00000696,-0.00005036,0.00001100,-0.00002309,-0
 .00001882,0.00003244,-0.00002072,-0.00003716,0.00001284,0.00001555,-0.
 00003636,0.00000736,-0.00001299,0.00000986,0.00004961,0.00002758,0.000
 01947,0.00000407,-0.12484752,-0.11829301,0.04986805,0.09761431,0.00037
 714,0.00004752,0.00097709,-0.00164567,0.00367947,0.00114645,-0.0214937
 6,-0.02513750,0.02679678,0.00535021,-0.00677336,-0.00479430,-0.0010606
 3,0.00117053,0.00170684,-0.00028749,0.00049031,-0.00054011,-0.00016282
 ,-0.00001844,0.00044644,-0.00101379,0.00322885,-0.00001719,-0.00015110
 ,0.00002175,0.00032857,-0.00008152,0.00027730,-0.00010036,-0.00013683,
 -0.00080136,-0.00077110,-0.00005806,0.00065870,-0.00016772,0.00052633,
 -0.00020741,0.00149512,0.00004504,-0.00022412,0.00028483,-0.00120615,0
 .00044532,-0.00139147,-0.00076477,0.00315802,-0.00182141,-0.00062040,-
 0.00233192,0.00190754,-0.00040902,-0.00176020,-0.00035618,-0.00177198,
 -0.00204137,0.00069617,0.00041437,0.00282764,-0.00010500,0.00103584,0.
 00064767,-0.00027670,0.00049426,0.00016952,0.00031830,-0.00003053,-0.0
 0009589,0.00000859,-0.00003805,0.00006450,-0.00002133,-0.00001247,0.00
 008463,-0.00000674,-0.00034632,-0.00054973,0.00009435,0.00003938,0.000
 06386,0.00000002,0.00006372,-0.00002965,-0.00002862,0.00006253,0.00008
 470,0.00011724,0.00108491,0.00033594,0.00085831,0.00003764,0.00006359,
 -0.00005521,0.00016070,-0.00011076,-0.00001953,0.00001469,0.00001654,-
 0.00003061,-0.00003555,-0.00009973,0.00002398,-0.00002569,-0.00005029,
 0.00010699,0.00004109,-0.00010336,-0.00001326,0.00004011,-0.00005054,0
 .00002947,0.00000596,0.00000775,0.00006244,0.00003127,-0.00000693,0.00
 002792,-0.11493552,-0.43645158,0.08068084,0.16005767,0.57069490,-0.000
 58261,0.00052970,-0.00273340,0.00493900,-0.00394871,-0.00175458,0.0198
 7609,0.04073400,-0.00821430,0.00508058,0.00256553,-0.00351723,-0.00134
 404,0.00003484,0.00050139,-0.00013702,0.00141745,-0.00077868,0.0000671
 8,-0.00005144,-0.00083763,0.00231679,0.00126771,-0.00250815,0.00018418
 ,-0.00007928,-0.00010609,0.00018008,0.00012804,0.00001021,0.00108683,-
 0.00099532,0.00014099,-0.00024439,0.00003725,0.00047944,-0.00026778,0.
 00018496,0.00035088,-0.00003845,-0.00002456,0.00009582,0.00007636,-0.0
 0004907,0.00022395,-0.00032129,-0.00029418,-0.00068549,-0.00005822,0.0
 0017291,0.00075669,0.00029524,0.00028272,0.00026653,0.00080174,0.00074
 020,-0.00052423,-0.00037724,-0.00035013,0.00077497,-0.00038017,-0.0003
 2005,0.00011527,-0.00010925,-0.00002410,-0.00021244,0.00001353,0.00001
 699,0.00001228,0.00001371,-0.00000083,0.00001095,0.00000844,0.00000191
 ,0.00003717,0.00018861,0.00015472,-0.00012019,-0.00001896,-0.00001276,
 0.00000642,-0.00004524,0.00001579,0.00002830,-0.00000384,-0.00001534,-
 0.00002666,-0.00017565,0.00007411,0.00008025,0.00002866,-0.00005706,-0
 .00000286,0.00001996,-0.00004704,-0.00005971,0.00001342,-0.00000853,-0
 .00003261,-0.00001206,0.00002425,0.00000098,0.00003339,0.00000507,-0.0
 0001317,0.00003848,-0.00005193,-0.00005095,-0.00001064,0.00002451,0.00
 000360,0.00002051,-0.00000004,-0.00004113,-0.00000749,-0.00001565,-0.0
 0002384,0.04892167,0.08268733,-0.14586408,-0.06455034,-0.07236856,0.12
 955571,-0.00059246,-0.00086433,-0.00123497,-0.00102084,0.00194536,0.00
 161018,0.01366799,0.01051582,0.01995231,0.00227924,-0.00113636,0.00089
 804,-0.00182397,-0.00123343,0.00050306,-0.00027872,0.00099167,0.000389
 37,-0.00017591,-0.00006396,0.00019780,0.00034683,0.00040568,0.00048029
 ,-0.00031794,-0.00003128,0.00004270,0.00020162,0.00008906,0.00010487,0
 .00038539,0.00217417,0.00057769,0.00055733,0.00020030,-0.00087063,0.00
 030481,-0.00025886,-0.00037413,-0.00022804,-0.00063226,0.00019978,0.00
 001447,0.00028977,-0.00024419,-0.00113785,0.00133862,-0.00094613,-0.00
 030212,-0.00210884,0.00100162,0.00010836,-0.00078389,0.00002958,-0.000
 40896,-0.00234724,0.00193157,-0.00094611,0.00105991,-0.00337329,-0.000
 66473,0.00062034,-0.00056244,0.00006080,0.00006418,0.00010320,0.000003
 51,-0.00002386,0.00000570,0.00002125,0.00002381,-0.00001474,-0.0000247
 2,0.00002710,-0.00000843,0.00015067,0.00012317,0.00008550,-0.00001861,
 0.00001827,-0.00003428,0.00005064,-0.00003810,0.00000217,0.00001351,-0
 .00001971,0.00003279,0.00065336,0.00031920,-0.00003432,0.00000347,0.00
 002739,0.00003265,-0.00006644,0.00007481,0.00003010,0.00001318,0.00001
 181,-0.00000038,0.00000624,0.00001885,-0.00001165,-0.00000965,0.000013
 52,0.00001237,-0.00008120,0.00010311,0.00007814,-0.00001403,-0.0000098
 4,-0.00003043,-0.00001406,0.00000370,0.00004392,0.00001479,0.00003751,
 -0.00001777,-0.08634458,0.02541771,0.04735344,0.02707994,-0.02242875,-
 0.01499372,0.04797326,0.00160870,0.00068848,-0.00104674,0.00093840,-0.
 00470198,-0.00017806,0.00531600,0.00335986,-0.02528954,0.00056476,0.00
 112649,0.00120745,0.00057185,0.00156818,-0.00015279,-0.00025519,0.0005
 5218,-0.00011689,0.00014177,0.00005151,-0.00034734,-0.00164823,0.00059
 789,0.00008333,-0.00010195,-0.00007133,-0.00009484,-0.00029307,0.00006
 795,-0.00020252,0.00259417,-0.00438780,0.00163476,-0.00126024,0.000166
 40,0.00151936,0.00010119,0.00000186,0.00181870,0.00040826,0.00010468,0
 .00047329,-0.00113808,0.00033620,-0.00107571,-0.00071836,0.00267289,-0
 .00182472,-0.00155465,-0.00266691,0.00244875,-0.00029917,-0.00161999,-
 0.00033246,-0.00113259,0.00022302,-0.00110329,0.00133897,0.00083992,0.
 00225638,0.00150968,0.00002310,0.00047671,0.00042600,0.00012771,0.0002
 4948,-0.00002543,-0.00007883,0.00000341,-0.00003506,0.00006094,-0.0000
 2412,-0.00001838,0.00007479,0.00000031,-0.00042214,-0.00056747,0.00003
 629,0.00005227,0.00003588,0.00002155,0.00001640,0.00001643,-0.00002681
 ,0.00004320,0.00008738,0.00004895,0.00067141,0.00021921,0.00095498,0.0
 0005007,0.00001300,-0.00007360,0.00022069,-0.00022338,-0.00013666,0.00
 001433,0.00000443,-0.00005117,-0.00005767,-0.00011469,0.00004303,0.000
 00983,-0.00004210,0.00009369,0.00008072,-0.00027214,-0.00006102,0.0000
 5621,-0.00002838,0.00005690,0.00002605,0.00001069,0.00000008,0.0000354
 0,-0.00005540,0.00004360,0.01934797,-0.32561222,-0.19667931,-0.0123631
 9,-0.11342475,-0.05324759,-0.01319400,0.44052745,0.00020867,0.00029942
 ,0.00019318,-0.00064403,-0.00324721,0.00144012,0.01617567,-0.03988711,
 -0.03658004,0.00094531,0.00675870,-0.00493160,0.00243062,-0.00066393,-
 0.00123767,0.00037939,-0.00083526,-0.00018201,0.00007438,0.00011485,-0
 .00036270,-0.00135387,-0.00015827,0.00009694,0.00043798,0.00005500,-0.
 00082800,-0.00011283,0.00008042,-0.00016891,-0.00082770,0.00224604,-0.
 00203445,-0.00003181,0.00060113,0.00005416,0.00008659,0.00011382,0.000
 64186,-0.00054887,-0.00039503,0.00014058,-0.00016792,0.00039921,-0.000
 33172,-0.00155873,0.00199232,-0.00284776,0.00000138,-0.00139178,0.0030
 0784,0.00035717,-0.00081324,0.00033495,0.00035693,0.00108004,-0.001268
 12,-0.00035935,-0.00012621,0.00151063,0.00019920,-0.00032104,0.0003208
 8,0.00014403,0.00010809,-0.00019054,0.00000642,-0.00004268,0.00004048,
 0.00000777,0.00005195,0.00000483,0.00000774,0.00008550,0.00007563,0.00
 002096,-0.00011022,-0.00014246,-0.00000570,0.00000402,0.00001773,-0.00
 004405,0.00000320,0.00001644,0.00000115,0.00002426,0.00001437,0.000452
 23,0.00027253,0.00052264,0.00006176,-0.00005394,-0.00002529,0.00004070
 ,-0.00005894,-0.00011703,0.00003563,-0.00000193,-0.00007636,-0.0000313
 6,0.00001916,-0.00000455,0.00004635,0.00000179,0.00004376,0.00008086,-
 0.00002130,-0.00005649,-0.00002379,0.00002793,-0.00000557,0.00003483,-
 0.00000040,-0.00003537,-0.00002192,-0.00001628,-0.00003555,0.04931172,
 -0.20154415,-0.31569791,-0.01299156,-0.03404484,0.03491153,-0.05230407
 ,0.26457630,0.32982022,-0.00108754,0.00358577,0.00042937,-0.00675672,-
 0.00013320,0.01886769,0.00070877,-0.00076579,-0.00033895,-0.00023087,0
 .00013711,0.00012985,0.00011536,0.00009119,-0.00018250,-0.00024762,-0.
 00047674,0.00077547,0.00003226,-0.00010020,-0.00011862,-0.00000943,0.0
 0000773,0.00000806,0.00001002,0.00003308,-0.00003496,-0.00020100,0.000
 19312,0.00009485,-0.06968506,-0.01190583,0.07151748,0.00543022,0.00591
 059,-0.02909683,-0.00439990,-0.00482806,0.01606835,-0.00468865,-0.0027
 5561,-0.00179278,-0.00293742,-0.00186994,-0.00106800,0.00016784,-0.002
 50243,0.00206851,0.00051346,0.00119216,-0.00088148,0.00018537,0.000620
 40,0.00003061,0.00021356,0.00142373,-0.00286625,-0.00033454,-0.0006223
 2,0.00133947,0.00022793,0.00015668,0.00034634,-0.00004541,-0.00000973,
 -0.00001723,0.00001252,0.00003533,0.00000879,-0.00001558,-0.00001170,0
 .00001908,0.00000918,-0.00002852,-0.00001806,0.00002323,0.00002900,0.0
 0003324,0.00003418,0.00000279,0.00001188,-0.00006137,-0.00002193,0.000
 00465,0.00000496,-0.00001740,-0.00001572,0.00136764,0.00086131,0.00007
 235,0.00009959,-0.00004002,-0.00001201,0.00074617,-0.00069385,-0.00017
 963,0.00002513,0.00006906,0.00004846,-0.00010838,-0.00029298,0.0001109
 8,-0.00003017,-0.00008722,0.00002839,-0.00038851,0.00140283,0.00025786
 ,-0.00026715,0.00015618,-0.00024581,0.00013368,-0.00002116,0.00006036,
 -0.00021191,0.00016848,-0.00013433,0.00015923,0.00271548,0.00199590,-0
 .00025951,-0.00116598,-0.00052607,0.00056025,-0.00162692,-0.00087785,0
 .08118619,0.00271415,-0.00528479,-0.00075302,0.00977958,0.00270041,-0.
 02733456,-0.00031406,0.00104412,0.00020625,0.00024373,-0.00035280,-0.0
 0028347,-0.00012291,-0.00033465,0.00036826,0.00056894,0.00097493,-0.00
 095456,-0.00019327,0.00003679,0.00003041,0.00007854,-0.00002503,-0.000
 03544,-0.00004232,-0.00005016,0.00006406,0.00025826,-0.00032904,-0.000
 19474,-0.01408770,-0.05138408,0.03844270,0.00281878,-0.00070986,0.0045
 7377,-0.01019378,-0.01065956,0.02569520,-0.00064312,0.00028842,0.00010
 981,-0.00416440,-0.00158600,-0.00141727,0.00056334,-0.00032822,0.00175
 002,0.00016797,0.00061831,-0.00055336,0.00025743,-0.00026898,-0.000041
 78,-0.00094766,0.00055439,-0.00128362,-0.00039829,-0.00057416,0.000259
 04,0.00041714,-0.00025323,0.00041250,0.00000179,0.00005677,0.00006324,
 0.00001170,0.00001483,0.00001826,-0.00000818,-0.00000545,-0.00001274,-
 0.00002817,0.00000237,-0.00002825,-0.00007485,0.00000988,0.00000051,0.
 00000325,-0.00000807,0.00001291,-0.00000720,0.00002919,-0.00000932,0.0
 0001844,-0.00000562,-0.00002658,0.00064899,0.00033516,0.00074512,-0.00
 004879,0.00011869,0.00006285,0.00088963,-0.00091918,-0.00004630,0.0000
 5588,0.00010017,-0.00002329,-0.00012521,-0.00032031,0.00015111,0.00001
 940,-0.00015075,0.00002066,-0.00015858,0.00002451,0.00019848,-0.000068
 75,0.00004637,-0.00004093,0.00002628,0.00002349,-0.00005721,0.00002015
 ,-0.00002048,-0.00001926,0.00134377,-0.00711261,-0.00375636,0.00027470
 ,0.00202989,0.00086219,-0.00074013,0.00030884,0.00481808,0.01118550,0.
 07136551,0.00087579,-0.00147419,0.00038094,0.00512850,-0.00180623,-0.0
 1054479,-0.00028015,0.00068210,-0.00013183,0.00019322,0.00005373,-0.00
 027884,0.00000114,-0.00003931,0.00013867,0.00014308,0.00046900,-0.0003
 0888,-0.00008807,0.00001787,-0.00001810,-0.00007602,0.00003260,0.00003
 572,0.00000809,-0.00001281,-0.00000760,-0.00003818,-0.00011981,-0.0000
 7409,0.07466946,0.03250756,-0.29666075,-0.00211067,0.00481050,-0.01488
 322,0.00024796,0.00329405,0.00463072,-0.00175760,-0.00142188,-0.000614
 65,-0.00135147,-0.00068277,-0.00088785,-0.00113558,-0.00040085,0.00127
 037,-0.00003263,-0.00039544,-0.00042825,0.00001566,0.00001379,-0.00024
 053,-0.00022502,0.00160617,-0.00068754,0.00129892,-0.00002647,0.000978
 78,0.00064672,0.00000563,0.00018752,0.00006782,-0.00003210,0.00011021,
 -0.00000472,-0.00000445,-0.00001322,-0.00001094,0.00001756,0.00000955,
 -0.00002133,-0.00001018,-0.00002141,-0.00013721,-0.00013409,0.00009990
 ,0.00004324,-0.00000139,0.00001001,-0.00000224,0.00001428,0.00000361,-
 0.00001263,0.00002251,-0.00001508,0.00088389,0.00009732,0.00088187,0.0
 0004179,0.00003416,-0.00004134,0.00040705,-0.00046245,-0.00032868,0.00
 000570,0.00000938,0.00003286,-0.00006760,-0.00025436,0.00007404,-0.000
 00621,-0.00000338,0.00003229,0.00001979,0.00045106,0.00000173,-0.00002
 601,0.00003266,-0.00007246,0.00005969,-0.00001530,0.00002747,-0.000096
 84,0.00005232,-0.00004637,-0.00102324,0.00223275,0.00249905,0.00031100
 ,-0.00118404,-0.00025588,-0.00064326,0.00401789,-0.00604871,-0.0759209
 0,-0.04199337,0.32120477\\-0.00000199,-0.00000334,0.00000116,-0.000003
 43,-0.00000489,0.00000373,0.00000212,-0.00000336,-0.00000724,-0.000002
 62,0.00000067,0.00000437,-0.00000028,0.00000098,0.00000135,-0.00000036
 ,0.00000078,0.00000182,-0.00000022,0.00000125,0.00000008,-0.00000036,-
 0.00000146,0.00000157,0.00000073,0.00000017,0.00000034,0.00000082,0.00
 000008,0.00000028,0.00000297,0.00001097,0.00000567,-0.00000925,-0.0000
 2702,-0.00000378,-0.00000861,-0.00000421,0.00000151,0.00001833,0.00002
 952,0.00000027,0.00000378,0.00001284,0.00000139,0.00000101,0.00000162,
 0.00000344,0.00000248,0.00000315,-0.00000135,-0.00000223,-0.00000766,-
 0.00000329,0.00000907,0.00001363,-0.00000623,0.00000420,-0.00000680,0.
 00000584,-0.00000072,-0.00000136,-0.00000347,0.00000036,-0.00000070,0.
 00000444,-0.00000115,0.00000091,0.00000005,-0.00000022,0.00000026,0.00
 000032,-0.00000112,0.00000003,0.00000037,0.00000115,0.00000335,0.00000
 137,0.00000004,0.00000032,-0.00000175,-0.00000059,-0.00000160,-0.00000
 051,0.00000102,-0.00000105,-0.00000135,-0.00000939,-0.00001602,-0.0000
 0394,0.00000482,-0.00000158,-0.00000155,-0.00000320,0.00000344,-0.0000
 0164,-0.00000397,0.00000222,-0.00000145,0.00000110,0.,0.00000176,-0.00
 000036,-0.00000210,-0.00000114,-0.00000359,-0.00000764,-0.00000009,-0.
 00000245,0.00000135,-0.00000070,0.00000043,0.00000087,0.00000122,0.000
 00180,0.00000076,0.00000043,-0.00001396,-0.00000203,0.00001196,0.00001
 195,0.00001439,-0.00000944,0.00000257,-0.00001137,-0.00000386,-0.00000
 067,0.00000061,-0.00000195\\\@


 IF GOD HAD MEANT MAN TO SEE THE SUN RISE, HE
 WOULD HAVE SCHEDULED IT FOR A LATER HOUR.
 Job cpu time:       3 days 21 hours 17 minutes  0.7 seconds.
 Elapsed time:       0 days  6 hours 39 minutes 48.9 seconds.
 File lengths (MBytes):  RWF=   6226 Int=      0 D2E=      0 Chk=     69 Scr=      1
 Normal termination of Gaussian 16 at Thu Jun  5 00:40:54 2025.
