 Entering Gaussian System, Link 0=g16
 Input=Nifedipine_DFT_B3LYP_6311pp2d3p_OptFreq_Raman_Hirshfeld.gjf
 Output=Nifedipine_DFT_B3LYP_6311pp2d3p_OptFreq_Raman_Hirshfeld.log
 Initial command:
 /Apps/Gaussian/G16//g16/l1.exe "/CompChemNFS/GaussianScratch/Gau-995344.inp" -scrdir="/CompChemNFS/GaussianScratch/"
 Entering Link 1 = /Apps/Gaussian/G16//g16/l1.exe PID=    995346.
  
 Copyright (c) 1988,1990,1992,1993,1995,1998,2003,2009,2016,
            Gaussian, Inc.  All Rights Reserved.
  
 This is part of the Gaussian(R) 16 program.  It is based on
 the Gaussian(R) 09 system (copyright 2009, Gaussian, Inc.),
 the Gaussian(R) 03 system (copyright 2003, Gaussian, Inc.),
 the Gaussian(R) 98 system (copyright 1998, Gaussian, Inc.),
 the Gaussian(R) 94 system (copyright 1995, Gaussian, Inc.),
 the Gaussian 92(TM) system (copyright 1992, Gaussian, Inc.),
 the Gaussian 90(TM) system (copyright 1990, Gaussian, Inc.),
 the Gaussian 88(TM) system (copyright 1988, Gaussian, Inc.),
 the Gaussian 86(TM) system (copyright 1986, Carnegie Mellon
 University), and the Gaussian 82(TM) system (copyright 1983,
 Carnegie Mellon University). Gaussian is a federally registered
 trademark of Gaussian, Inc.
  
 This software contains proprietary and confidential information,
 including trade secrets, belonging to Gaussian, Inc.
  
 This software is provided under written license and may be
 used, copied, transmitted, or stored only in accord with that
 written license.
  
 The following legend is applicable only to US Government
 contracts under FAR:
  
                    RESTRICTED RIGHTS LEGEND
  
 Use, reproduction and disclosure by the US Government is
 subject to restrictions as set forth in subparagraphs (a)
 and (c) of the Commercial Computer Software - Restricted
 Rights clause in FAR 52.227-19.
  
 Gaussian, Inc.
 340 Quinnipiac St., Bldg. 40, Wallingford CT 06492
  
  
 ---------------------------------------------------------------
 Warning -- This program may not be used in any manner that
 competes with the business of Gaussian, Inc. or will provide
 assistance to any competitor of Gaussian, Inc.  The licensee
 of this program is prohibited from giving any competitor of
 Gaussian, Inc. access to this program.  By using this program,
 the user acknowledges that Gaussian, Inc. is engaged in the
 business of creating and licensing software in the field of
 computational chemistry and represents and warrants to the
 licensee that it is not a competitor of Gaussian, Inc. and that
 it will not use this program in any manner prohibited above.
 ---------------------------------------------------------------
  

 Cite this work as:
 Gaussian 16, Revision A.03,
 M. J. Frisch, G. W. Trucks, H. B. Schlegel, G. E. Scuseria, 
 M. A. Robb, J. R. Cheeseman, G. Scalmani, V. Barone, 
 G. A. Petersson, H. Nakatsuji, X. Li, M. Caricato, A. V. Marenich, 
 J. Bloino, B. G. Janesko, R. Gomperts, B. Mennucci, H. P. Hratchian, 
 J. V. Ortiz, A. F. Izmaylov, J. L. Sonnenberg, D. Williams-Young, 
 F. Ding, F. Lipparini, F. Egidi, J. Goings, B. Peng, A. Petrone, 
 T. Henderson, D. Ranasinghe, V. G. Zakrzewski, J. Gao, N. Rega, 
 G. Zheng, W. Liang, M. Hada, M. Ehara, K. Toyota, R. Fukuda, 
 J. Hasegawa, M. Ishida, T. Nakajima, Y. Honda, O. Kitao, H. Nakai, 
 T. Vreven, K. Throssell, J. A. Montgomery, Jr., J. E. Peralta, 
 F. Ogliaro, M. J. Bearpark, J. J. Heyd, E. N. Brothers, K. N. Kudin, 
 V. N. Staroverov, T. A. Keith, R. Kobayashi, J. Normand, 
 K. Raghavachari, A. P. Rendell, J. C. Burant, S. S. Iyengar, 
 J. Tomasi, M. Cossi, J. M. Millam, M. Klene, C. Adamo, R. Cammi, 
 J. W. Ochterski, R. L. Martin, K. Morokuma, O. Farkas, 
 J. B. Foresman, and D. J. Fox, Gaussian, Inc., Wallingford CT, 2016.
 
 ******************************************
 Gaussian 16:  ES64L-G16RevA.03 25-Dec-2016
                 4-Jun-2025 
 ******************************************
 %nprocshared=14
 Will use up to   14 processors via shared memory.
 %mem=16GB
 %chk=Nifedipine_DFT_B3LYP_6311pp2d3p_OptFreq_Raman_Hirshfeld.chk
 ----------------------------------------------------------------------
 #p opt freq=raman b3lyp/6-311++g(2d,3p) guess=save pop=hirshfeld geom=
 connectivity
 ----------------------------------------------------------------------
 1/18=20,19=15,26=3,38=1,57=2/1,3;
 2/9=110,12=2,17=6,18=5,40=1/2;
 3/5=4,6=6,7=1512,11=2,25=1,30=1,71=1,74=-5/1,2,3;
 4//1;
 5/5=2,38=5/2;
 6/7=2,8=2,9=2,10=2,28=1,79=1/1;
 7//1,2,3,16;
 1/18=20,19=15,26=3/3(2);
 2/9=110/2;
 99//99;
 2/9=110/2;
 3/5=4,6=6,7=1512,11=2,25=1,30=1,71=1,74=-5/1,2,3;
 4/5=5,16=3,69=1/1;
 5/5=2,38=5/2;
 7//1,2,3,16;
 1/18=20,19=15,26=3/3(-5);
 2/9=110/2;
 6/7=2,8=2,9=2,10=2,19=2,28=1,79=1/1;
 99/9=1/99;
 Leave Link    1 at Wed Jun  4 11:39:52 2025, MaxMem=  2147483648 cpu:               0.3 elap:               0.0
 (Enter /Apps/Gaussian/G16//g16/l101.exe)
 ----------
 Nifedipine
 ----------
 Symbolic Z-matrix:
 Charge =  0 Multiplicity = 1
 C                    -0.75584   0.50763  -0.2102 
 C                     0.57961   0.07252  -0.22319 
 C                     1.59306   1.00981  -0.49825 
 C                     1.2827    2.35245  -0.78266 
 C                    -0.05106   2.77192  -0.73349 
 C                    -1.07425   1.85313  -0.43925 
 H                    -1.53922  -0.183    -0.02314 
 H                     2.06742   3.05803  -1.0375 
 H                    -0.29162   3.79438  -0.92219 
 H                    -2.10046   2.17884  -0.39317 
 C                     0.98907  -1.4065   -0.03829 
 C                     1.97311  -1.80779  -1.14248 
 C                     1.54391  -1.65763   1.35965 
 C                     2.96891  -2.69681  -0.91163 
 C                     2.54716  -2.55961   1.54845 
 C                     0.93298  -0.90964   2.56849 
 O                     0.02035  -0.06877   2.38778 
 O                     1.40183  -1.16441   3.90055 
 C                     1.83901  -1.2071   -2.54863 
 O                     0.91944  -0.39846  -2.80612 
 O                     2.76952  -1.56089  -3.57353 
 C                     0.34213  -0.93955   4.849 
 H                     0.71532  -1.10483   5.8413 
 H                    -0.00263   0.06768   4.76475 
 H                    -0.46351  -1.60965   4.64823 
 C                     2.86917  -0.44649  -4.46821 
 H                     3.52667  -0.69519  -5.2756 
 H                     1.89398  -0.22167  -4.85197 
 H                     3.25473   0.40133  -3.94358 
 N                     3.48267  -2.95481   0.45586 
 H                     4.322    -2.41494   0.56856 
 C                     2.708    -3.15247   2.95389 
 H                     2.4576   -2.41112   3.6852 
 H                     2.05777  -4.00245   3.06921 
 H                     3.72208  -3.46698   3.09699 
 C                     3.59559  -3.42193  -2.12389 
 H                     2.81543  -3.67195  -2.83092 
 H                     4.31353  -2.76461  -2.59682 
 H                     4.09149  -4.32187  -1.79604 
 N                     2.98411   0.57046  -0.49501 
 O                     3.96864   1.45913  -0.81009 
 O                     3.24968  -0.56955  -0.21818 
 H                     0.12974  -2.02249  -0.1645 
 
 ITRead=  0  0  0  0  0  0  0  0  0  0  0  0  0  0  0  0  0  0  0  0
 ITRead=  0  0  0  0  0  0  0  0  0  0  0  0  0  0  0  0  0  0  0  0
 ITRead=  0  0  0
 MicOpt= -1 -1 -1 -1 -1 -1 -1 -1 -1 -1 -1 -1 -1 -1 -1 -1 -1 -1 -1 -1
 MicOpt= -1 -1 -1 -1 -1 -1 -1 -1 -1 -1 -1 -1 -1 -1 -1 -1 -1 -1 -1 -1
 MicOpt= -1 -1 -1
 NAtoms=     43 NQM=       43 NQMF=       0 NMMI=      0 NMMIF=      0
                NMic=       0 NMicF=      0.
                    Isotopes and Nuclear Properties:
 (Nuclear quadrupole moments (NQMom) in fm**2, nuclear magnetic moments (NMagM)
  in nuclear magnetons)

  Atom         1           2           3           4           5           6           7           8           9          10
 IAtWgt=          12          12          12          12          12          12           1           1           1           1
 AtmWgt=  12.0000000  12.0000000  12.0000000  12.0000000  12.0000000  12.0000000   1.0078250   1.0078250   1.0078250   1.0078250
 NucSpn=           0           0           0           0           0           0           1           1           1           1
 AtZEff=  -0.0000000  -0.0000000  -0.0000000  -0.0000000  -0.0000000  -0.0000000  -0.0000000  -0.0000000  -0.0000000  -0.0000000
 NQMom=    0.0000000   0.0000000   0.0000000   0.0000000   0.0000000   0.0000000   0.0000000   0.0000000   0.0000000   0.0000000
 NMagM=    0.0000000   0.0000000   0.0000000   0.0000000   0.0000000   0.0000000   2.7928460   2.7928460   2.7928460   2.7928460
 AtZNuc=   6.0000000   6.0000000   6.0000000   6.0000000   6.0000000   6.0000000   1.0000000   1.0000000   1.0000000   1.0000000

  Atom        11          12          13          14          15          16          17          18          19          20
 IAtWgt=          12          12          12          12          12          12          16          16          12          16
 AtmWgt=  12.0000000  12.0000000  12.0000000  12.0000000  12.0000000  12.0000000  15.9949146  15.9949146  12.0000000  15.9949146
 NucSpn=           0           0           0           0           0           0           0           0           0           0
 AtZEff=  -0.0000000  -0.0000000  -0.0000000  -0.0000000  -0.0000000  -0.0000000  -0.0000000  -0.0000000  -0.0000000  -0.0000000
 NQMom=    0.0000000   0.0000000   0.0000000   0.0000000   0.0000000   0.0000000   0.0000000   0.0000000   0.0000000   0.0000000
 NMagM=    0.0000000   0.0000000   0.0000000   0.0000000   0.0000000   0.0000000   0.0000000   0.0000000   0.0000000   0.0000000
 AtZNuc=   6.0000000   6.0000000   6.0000000   6.0000000   6.0000000   6.0000000   8.0000000   8.0000000   6.0000000   8.0000000

  Atom        21          22          23          24          25          26          27          28          29          30
 IAtWgt=          16          12           1           1           1          12           1           1           1          14
 AtmWgt=  15.9949146  12.0000000   1.0078250   1.0078250   1.0078250  12.0000000   1.0078250   1.0078250   1.0078250  14.0030740
 NucSpn=           0           0           1           1           1           0           1           1           1           2
 AtZEff=  -0.0000000  -0.0000000  -0.0000000  -0.0000000  -0.0000000  -0.0000000  -0.0000000  -0.0000000  -0.0000000  -0.0000000
 NQMom=    0.0000000   0.0000000   0.0000000   0.0000000   0.0000000   0.0000000   0.0000000   0.0000000   0.0000000   2.0440000
 NMagM=    0.0000000   0.0000000   2.7928460   2.7928460   2.7928460   0.0000000   2.7928460   2.7928460   2.7928460   0.4037610
 AtZNuc=   8.0000000   6.0000000   1.0000000   1.0000000   1.0000000   6.0000000   1.0000000   1.0000000   1.0000000   7.0000000

  Atom        31          32          33          34          35          36          37          38          39          40
 IAtWgt=           1          12           1           1           1          12           1           1           1          14
 AtmWgt=   1.0078250  12.0000000   1.0078250   1.0078250   1.0078250  12.0000000   1.0078250   1.0078250   1.0078250  14.0030740
 NucSpn=           1           0           1           1           1           0           1           1           1           2
 AtZEff=  -0.0000000  -0.0000000  -0.0000000  -0.0000000  -0.0000000  -0.0000000  -0.0000000  -0.0000000  -0.0000000  -0.0000000
 NQMom=    0.0000000   0.0000000   0.0000000   0.0000000   0.0000000   0.0000000   0.0000000   0.0000000   0.0000000   2.0440000
 NMagM=    2.7928460   0.0000000   2.7928460   2.7928460   2.7928460   0.0000000   2.7928460   2.7928460   2.7928460   0.4037610
 AtZNuc=   1.0000000   6.0000000   1.0000000   1.0000000   1.0000000   6.0000000   1.0000000   1.0000000   1.0000000   7.0000000

  Atom        41          42          43
 IAtWgt=          16          16           1
 AtmWgt=  15.9949146  15.9949146   1.0078250
 NucSpn=           0           0           1
 AtZEff=  -0.0000000  -0.0000000  -0.0000000
 NQMom=    0.0000000   0.0000000   0.0000000
 NMagM=    0.0000000   0.0000000   2.7928460
 AtZNuc=   8.0000000   8.0000000   1.0000000
 Leave Link  101 at Wed Jun  4 11:39:52 2025, MaxMem=  2147483648 cpu:               4.3 elap:               0.3
 (Enter /Apps/Gaussian/G16//g16/l103.exe)

 GradGradGradGradGradGradGradGradGradGradGradGradGradGradGradGradGradGrad
 Berny optimization.
 Initialization pass.
                           ----------------------------
                           !    Initial Parameters    !
                           ! (Angstroms and Degrees)  !
 --------------------------                            --------------------------
 ! Name  Definition              Value          Derivative Info.                !
 --------------------------------------------------------------------------------
 ! R1    R(1,2)                  1.4046         estimate D2E/DX2                !
 ! R2    R(1,6)                  1.4015         estimate D2E/DX2                !
 ! R3    R(1,7)                  1.061          estimate D2E/DX2                !
 ! R4    R(2,3)                  1.4076         estimate D2E/DX2                !
 ! R5    R(2,11)                 1.5458         estimate D2E/DX2                !
 ! R6    R(3,4)                  1.4071         estimate D2E/DX2                !
 ! R7    R(3,40)                 1.4588         estimate D2E/DX2                !
 ! R8    R(4,5)                  1.399          estimate D2E/DX2                !
 ! R9    R(4,8)                  1.0856         estimate D2E/DX2                !
 ! R10   R(5,6)                  1.4063         estimate D2E/DX2                !
 ! R11   R(5,9)                  1.0672         estimate D2E/DX2                !
 ! R12   R(6,10)                 1.0776         estimate D2E/DX2                !
 ! R13   R(11,12)                1.5325         estimate D2E/DX2                !
 ! R14   R(11,13)                1.5248         estimate D2E/DX2                !
 ! R15   R(11,43)                1.0648         estimate D2E/DX2                !
 ! R16   R(12,14)                1.3547         estimate D2E/DX2                !
 ! R17   R(12,19)                1.535          estimate D2E/DX2                !
 ! R18   R(13,15)                1.3622         estimate D2E/DX2                !
 ! R19   R(13,16)                1.5473         estimate D2E/DX2                !
 ! R20   R(14,30)                1.4834         estimate D2E/DX2                !
 ! R21   R(14,36)                1.5454         estimate D2E/DX2                !
 ! R22   R(15,30)                1.4917         estimate D2E/DX2                !
 ! R23   R(15,32)                1.5338         estimate D2E/DX2                !
 ! R24   R(16,17)                1.254          estimate D2E/DX2                !
 ! R25   R(16,18)                1.435          estimate D2E/DX2                !
 ! R26   R(18,22)                1.4398         estimate D2E/DX2                !
 ! R27   R(19,20)                1.2513         estimate D2E/DX2                !
 ! R28   R(19,21)                1.4288         estimate D2E/DX2                !
 ! R29   R(21,26)                1.4326         estimate D2E/DX2                !
 ! R30   R(22,23)                1.073          estimate D2E/DX2                !
 ! R31   R(22,24)                1.0679         estimate D2E/DX2                !
 ! R32   R(22,25)                1.067          estimate D2E/DX2                !
 ! R33   R(26,27)                1.0705         estimate D2E/DX2                !
 ! R34   R(26,28)                1.0718         estimate D2E/DX2                !
 ! R35   R(26,29)                1.069          estimate D2E/DX2                !
 ! R36   R(30,31)                1.0043         estimate D2E/DX2                !
 ! R37   R(32,33)                1.071          estimate D2E/DX2                !
 ! R38   R(32,34)                1.0764         estimate D2E/DX2                !
 ! R39   R(32,35)                1.0713         estimate D2E/DX2                !
 ! R40   R(36,37)                1.0821         estimate D2E/DX2                !
 ! R41   R(36,38)                1.0822         estimate D2E/DX2                !
 ! R42   R(36,39)                1.0786         estimate D2E/DX2                !
 ! R43   R(40,41)                1.3632         estimate D2E/DX2                !
 ! R44   R(40,42)                1.2028         estimate D2E/DX2                !
 ! A1    A(2,1,6)              120.7894         estimate D2E/DX2                !
 ! A2    A(2,1,7)              120.1323         estimate D2E/DX2                !
 ! A3    A(6,1,7)              119.0781         estimate D2E/DX2                !
 ! A4    A(1,2,3)              118.6914         estimate D2E/DX2                !
 ! A5    A(1,2,11)             123.1714         estimate D2E/DX2                !
 ! A6    A(3,2,11)             118.0206         estimate D2E/DX2                !
 ! A7    A(2,3,4)              121.0694         estimate D2E/DX2                !
 ! A8    A(2,3,40)             119.0509         estimate D2E/DX2                !
 ! A9    A(4,3,40)             119.8783         estimate D2E/DX2                !
 ! A10   A(3,4,5)              119.2927         estimate D2E/DX2                !
 ! A11   A(3,4,8)              120.5425         estimate D2E/DX2                !
 ! A12   A(5,4,8)              120.1647         estimate D2E/DX2                !
 ! A13   A(4,5,6)              120.3379         estimate D2E/DX2                !
 ! A14   A(4,5,9)              119.7323         estimate D2E/DX2                !
 ! A15   A(6,5,9)              119.9297         estimate D2E/DX2                !
 ! A16   A(1,6,5)              119.744          estimate D2E/DX2                !
 ! A17   A(1,6,10)             119.9682         estimate D2E/DX2                !
 ! A18   A(5,6,10)             120.2874         estimate D2E/DX2                !
 ! A19   A(2,11,12)            109.5395         estimate D2E/DX2                !
 ! A20   A(2,11,13)            111.3234         estimate D2E/DX2                !
 ! A21   A(2,11,43)            109.0002         estimate D2E/DX2                !
 ! A22   A(12,11,13)           112.5676         estimate D2E/DX2                !
 ! A23   A(12,11,43)           106.3387         estimate D2E/DX2                !
 ! A24   A(13,11,43)           107.8809         estimate D2E/DX2                !
 ! A25   A(11,12,14)           121.4027         estimate D2E/DX2                !
 ! A26   A(11,12,19)           120.0978         estimate D2E/DX2                !
 ! A27   A(14,12,19)           118.4984         estimate D2E/DX2                !
 ! A28   A(11,13,15)           120.2704         estimate D2E/DX2                !
 ! A29   A(11,13,16)           119.5358         estimate D2E/DX2                !
 ! A30   A(15,13,16)           120.1722         estimate D2E/DX2                !
 ! A31   A(12,14,30)           121.7219         estimate D2E/DX2                !
 ! A32   A(12,14,36)           118.1859         estimate D2E/DX2                !
 ! A33   A(30,14,36)           120.0727         estimate D2E/DX2                !
 ! A34   A(13,15,30)           122.3972         estimate D2E/DX2                !
 ! A35   A(13,15,32)           117.3967         estimate D2E/DX2                !
 ! A36   A(30,15,32)           120.1971         estimate D2E/DX2                !
 ! A37   A(13,16,17)           119.9282         estimate D2E/DX2                !
 ! A38   A(13,16,18)           120.6913         estimate D2E/DX2                !
 ! A39   A(17,16,18)           119.3803         estimate D2E/DX2                !
 ! A40   A(16,18,22)           110.0776         estimate D2E/DX2                !
 ! A41   A(12,19,20)           120.3714         estimate D2E/DX2                !
 ! A42   A(12,19,21)           120.2208         estimate D2E/DX2                !
 ! A43   A(20,19,21)           119.4067         estimate D2E/DX2                !
 ! A44   A(19,21,26)           107.4975         estimate D2E/DX2                !
 ! A45   A(18,22,23)           109.218          estimate D2E/DX2                !
 ! A46   A(18,22,24)           109.4469         estimate D2E/DX2                !
 ! A47   A(18,22,25)           109.4929         estimate D2E/DX2                !
 ! A48   A(23,22,24)           109.3017         estimate D2E/DX2                !
 ! A49   A(23,22,25)           109.8709         estimate D2E/DX2                !
 ! A50   A(24,22,25)           109.4959         estimate D2E/DX2                !
 ! A51   A(21,26,27)           109.4524         estimate D2E/DX2                !
 ! A52   A(21,26,28)           108.874          estimate D2E/DX2                !
 ! A53   A(21,26,29)           109.6064         estimate D2E/DX2                !
 ! A54   A(27,26,28)           109.724          estimate D2E/DX2                !
 ! A55   A(27,26,29)           109.4434         estimate D2E/DX2                !
 ! A56   A(28,26,29)           109.7261         estimate D2E/DX2                !
 ! A57   A(14,30,15)           114.3262         estimate D2E/DX2                !
 ! A58   A(14,30,31)           107.4213         estimate D2E/DX2                !
 ! A59   A(15,30,31)           107.4286         estimate D2E/DX2                !
 ! A60   A(15,32,33)           109.4872         estimate D2E/DX2                !
 ! A61   A(15,32,34)           109.8804         estimate D2E/DX2                !
 ! A62   A(15,32,35)           109.5802         estimate D2E/DX2                !
 ! A63   A(33,32,34)           109.403          estimate D2E/DX2                !
 ! A64   A(33,32,35)           109.4689         estimate D2E/DX2                !
 ! A65   A(34,32,35)           109.0063         estimate D2E/DX2                !
 ! A66   A(14,36,37)           109.1829         estimate D2E/DX2                !
 ! A67   A(14,36,38)           109.0764         estimate D2E/DX2                !
 ! A68   A(14,36,39)           109.8474         estimate D2E/DX2                !
 ! A69   A(37,36,38)           109.456          estimate D2E/DX2                !
 ! A70   A(37,36,39)           109.7123         estimate D2E/DX2                !
 ! A71   A(38,36,39)           109.5494         estimate D2E/DX2                !
 ! A72   A(3,40,41)            119.4611         estimate D2E/DX2                !
 ! A73   A(3,40,42)            119.7688         estimate D2E/DX2                !
 ! A74   A(41,40,42)           120.7699         estimate D2E/DX2                !
 ! D1    D(6,1,2,3)             -1.2854         estimate D2E/DX2                !
 ! D2    D(6,1,2,11)          -177.2769         estimate D2E/DX2                !
 ! D3    D(7,1,2,3)            178.874          estimate D2E/DX2                !
 ! D4    D(7,1,2,11)             2.8825         estimate D2E/DX2                !
 ! D5    D(2,1,6,5)              2.3103         estimate D2E/DX2                !
 ! D6    D(2,1,6,10)          -177.9247         estimate D2E/DX2                !
 ! D7    D(7,1,6,5)           -177.8474         estimate D2E/DX2                !
 ! D8    D(7,1,6,10)             1.9176         estimate D2E/DX2                !
 ! D9    D(1,2,3,4)             -1.2835         estimate D2E/DX2                !
 ! D10   D(1,2,3,40)           179.1375         estimate D2E/DX2                !
 ! D11   D(11,2,3,4)           174.916          estimate D2E/DX2                !
 ! D12   D(11,2,3,40)           -4.663          estimate D2E/DX2                !
 ! D13   D(1,2,11,12)          130.7845         estimate D2E/DX2                !
 ! D14   D(1,2,11,13)         -104.0679         estimate D2E/DX2                !
 ! D15   D(1,2,11,43)           14.814          estimate D2E/DX2                !
 ! D16   D(3,2,11,12)          -45.2323         estimate D2E/DX2                !
 ! D17   D(3,2,11,13)           79.9153         estimate D2E/DX2                !
 ! D18   D(3,2,11,43)         -161.2028         estimate D2E/DX2                !
 ! D19   D(2,3,4,5)              2.7945         estimate D2E/DX2                !
 ! D20   D(2,3,4,8)           -177.2293         estimate D2E/DX2                !
 ! D21   D(40,3,4,5)          -177.6299         estimate D2E/DX2                !
 ! D22   D(40,3,4,8)             2.3463         estimate D2E/DX2                !
 ! D23   D(2,3,40,41)          177.5208         estimate D2E/DX2                !
 ! D24   D(2,3,40,42)           -2.3104         estimate D2E/DX2                !
 ! D25   D(4,3,40,41)           -2.0634         estimate D2E/DX2                !
 ! D26   D(4,3,40,42)          178.1054         estimate D2E/DX2                !
 ! D27   D(3,4,5,6)             -1.7483         estimate D2E/DX2                !
 ! D28   D(3,4,5,9)            178.3601         estimate D2E/DX2                !
 ! D29   D(8,4,5,6)            178.2754         estimate D2E/DX2                !
 ! D30   D(8,4,5,9)             -1.6162         estimate D2E/DX2                !
 ! D31   D(4,5,6,1)             -0.7668         estimate D2E/DX2                !
 ! D32   D(4,5,6,10)           179.4689         estimate D2E/DX2                !
 ! D33   D(9,5,6,1)            179.1246         estimate D2E/DX2                !
 ! D34   D(9,5,6,10)            -0.6397         estimate D2E/DX2                !
 ! D35   D(2,11,12,14)         146.2404         estimate D2E/DX2                !
 ! D36   D(2,11,12,19)         -34.1338         estimate D2E/DX2                !
 ! D37   D(13,11,12,14)         21.8145         estimate D2E/DX2                !
 ! D38   D(13,11,12,19)       -158.5597         estimate D2E/DX2                !
 ! D39   D(43,11,12,14)        -96.1112         estimate D2E/DX2                !
 ! D40   D(43,11,12,19)         83.5146         estimate D2E/DX2                !
 ! D41   D(2,11,13,15)        -145.3581         estimate D2E/DX2                !
 ! D42   D(2,11,13,16)          36.3284         estimate D2E/DX2                !
 ! D43   D(12,11,13,15)        -21.9199         estimate D2E/DX2                !
 ! D44   D(12,11,13,16)        159.7666         estimate D2E/DX2                !
 ! D45   D(43,11,13,15)         95.0926         estimate D2E/DX2                !
 ! D46   D(43,11,13,16)        -83.2209         estimate D2E/DX2                !
 ! D47   D(11,12,14,30)        -22.606          estimate D2E/DX2                !
 ! D48   D(11,12,14,36)        159.002          estimate D2E/DX2                !
 ! D49   D(19,12,14,30)        157.7624         estimate D2E/DX2                !
 ! D50   D(19,12,14,36)        -20.6296         estimate D2E/DX2                !
 ! D51   D(11,12,19,20)         -0.743          estimate D2E/DX2                !
 ! D52   D(11,12,19,21)        178.8677         estimate D2E/DX2                !
 ! D53   D(14,12,19,20)        178.8936         estimate D2E/DX2                !
 ! D54   D(14,12,19,21)         -1.4957         estimate D2E/DX2                !
 ! D55   D(11,13,15,30)         23.3035         estimate D2E/DX2                !
 ! D56   D(11,13,15,32)       -157.7908         estimate D2E/DX2                !
 ! D57   D(16,13,15,30)       -158.3937         estimate D2E/DX2                !
 ! D58   D(16,13,15,32)         20.512          estimate D2E/DX2                !
 ! D59   D(11,13,16,17)         -2.5188         estimate D2E/DX2                !
 ! D60   D(11,13,16,18)        177.6391         estimate D2E/DX2                !
 ! D61   D(15,13,16,17)        179.166          estimate D2E/DX2                !
 ! D62   D(15,13,16,18)         -0.6761         estimate D2E/DX2                !
 ! D63   D(12,14,30,15)         20.3664         estimate D2E/DX2                !
 ! D64   D(12,14,30,31)        -98.735          estimate D2E/DX2                !
 ! D65   D(36,14,30,15)       -161.2714         estimate D2E/DX2                !
 ! D66   D(36,14,30,31)         79.6272         estimate D2E/DX2                !
 ! D67   D(12,14,36,37)        -39.2297         estimate D2E/DX2                !
 ! D68   D(12,14,36,38)         80.3391         estimate D2E/DX2                !
 ! D69   D(12,14,36,39)       -159.5782         estimate D2E/DX2                !
 ! D70   D(30,14,36,37)        142.3508         estimate D2E/DX2                !
 ! D71   D(30,14,36,38)        -98.0803         estimate D2E/DX2                !
 ! D72   D(30,14,36,39)         22.0023         estimate D2E/DX2                !
 ! D73   D(13,15,30,14)        -20.9162         estimate D2E/DX2                !
 ! D74   D(13,15,30,31)         98.1811         estimate D2E/DX2                !
 ! D75   D(32,15,30,14)        160.2079         estimate D2E/DX2                !
 ! D76   D(32,15,30,31)        -80.6948         estimate D2E/DX2                !
 ! D77   D(13,15,32,33)        -34.5509         estimate D2E/DX2                !
 ! D78   D(13,15,32,34)         85.6272         estimate D2E/DX2                !
 ! D79   D(13,15,32,35)       -154.6247         estimate D2E/DX2                !
 ! D80   D(30,15,32,33)        144.3801         estimate D2E/DX2                !
 ! D81   D(30,15,32,34)        -95.4418         estimate D2E/DX2                !
 ! D82   D(30,15,32,35)         24.3063         estimate D2E/DX2                !
 ! D83   D(13,16,18,22)       -150.8728         estimate D2E/DX2                !
 ! D84   D(17,16,18,22)         29.2843         estimate D2E/DX2                !
 ! D85   D(16,18,22,23)       -178.2969         estimate D2E/DX2                !
 ! D86   D(16,18,22,24)        -58.6729         estimate D2E/DX2                !
 ! D87   D(16,18,22,25)         61.3557         estimate D2E/DX2                !
 ! D88   D(12,19,21,26)       -150.7637         estimate D2E/DX2                !
 ! D89   D(20,19,21,26)         28.8508         estimate D2E/DX2                !
 ! D90   D(19,21,26,27)       -177.4328         estimate D2E/DX2                !
 ! D91   D(19,21,26,28)        -57.4988         estimate D2E/DX2                !
 ! D92   D(19,21,26,29)         62.53           estimate D2E/DX2                !
 --------------------------------------------------------------------------------
 Trust Radius=3.00D-01 FncErr=1.00D-07 GrdErr=1.00D-06 EigMax=2.50D+02 EigMin=1.00D-04
 Number of steps in this run=    220 maximum allowed number of steps=    258.
 GradGradGradGradGradGradGradGradGradGradGradGradGradGradGradGradGradGrad

 Leave Link  103 at Wed Jun  4 11:39:52 2025, MaxMem=  2147483648 cpu:               0.1 elap:               0.0
 (Enter /Apps/Gaussian/G16//g16/l202.exe)
                          Input orientation:                          
 ---------------------------------------------------------------------
 Center     Atomic      Atomic             Coordinates (Angstroms)
 Number     Number       Type             X           Y           Z
 ---------------------------------------------------------------------
      1          6           0       -0.755843    0.507629   -0.210196
      2          6           0        0.579606    0.072525   -0.223187
      3          6           0        1.593063    1.009809   -0.498248
      4          6           0        1.282701    2.352450   -0.782662
      5          6           0       -0.051058    2.771922   -0.733487
      6          6           0       -1.074252    1.853135   -0.439248
      7          1           0       -1.539215   -0.182998   -0.023143
      8          1           0        2.067417    3.058026   -1.037504
      9          1           0       -0.291622    3.794378   -0.922186
     10          1           0       -2.100459    2.178839   -0.393172
     11          6           0        0.989069   -1.406497   -0.038292
     12          6           0        1.973113   -1.807789   -1.142476
     13          6           0        1.543910   -1.657630    1.359651
     14          6           0        2.968914   -2.696810   -0.911626
     15          6           0        2.547156   -2.559606    1.548447
     16          6           0        0.932981   -0.909640    2.568492
     17          8           0        0.020347   -0.068771    2.387775
     18          8           0        1.401827   -1.164414    3.900550
     19          6           0        1.839011   -1.207105   -2.548635
     20          8           0        0.919438   -0.398462   -2.806124
     21          8           0        2.769522   -1.560894   -3.573535
     22          6           0        0.342131   -0.939546    4.849004
     23          1           0        0.715316   -1.104832    5.841295
     24          1           0       -0.002632    0.067683    4.764748
     25          1           0       -0.463507   -1.609645    4.648231
     26          6           0        2.869173   -0.446492   -4.468207
     27          1           0        3.526673   -0.695186   -5.275602
     28          1           0        1.893983   -0.221673   -4.851975
     29          1           0        3.254726    0.401328   -3.943576
     30          7           0        3.482667   -2.954810    0.455855
     31          1           0        4.321998   -2.414943    0.568557
     32          6           0        2.707999   -3.152469    2.953888
     33          1           0        2.457605   -2.411117    3.685203
     34          1           0        2.057769   -4.002451    3.069215
     35          1           0        3.722079   -3.466984    3.096989
     36          6           0        3.595589   -3.421934   -2.123894
     37          1           0        2.815434   -3.671950   -2.830916
     38          1           0        4.313529   -2.764607   -2.596823
     39          1           0        4.091489   -4.321874   -1.796042
     40          7           0        2.984108    0.570456   -0.495011
     41          8           0        3.968636    1.459127   -0.810089
     42          8           0        3.249684   -0.569552   -0.218179
     43          1           0        0.129744   -2.022489   -0.164503
 ---------------------------------------------------------------------
                    Distance matrix (angstroms):
                    1          2          3          4          5
     1  C    0.000000
     2  C    1.404603   0.000000
     3  C    2.419198   1.407571   0.000000
     4  C    2.808335   2.450594   1.407089   0.000000
     5  C    2.428493   2.818667   2.421469   1.399031   0.000000
     6  C    1.401512   2.439775   2.798080   2.433614   1.406297
     7  H    1.060955   2.143528   3.385215   3.868924   3.383896
     8  H    3.893554   3.433644   2.170484   1.085615   2.159216
     9  H    3.394871   3.885850   3.389039   2.139419   1.067190
    10  H    2.152769   3.412946   3.875536   3.409929   2.160465
    11  C    2.595794   1.545752   2.532765   3.843174   4.361690
    12  C    3.698311   2.514465   2.915189   4.232460   5.023772
    13  C    3.527269   2.535486   3.251067   4.553951   5.152288
    14  C    4.963290   3.721822   3.975282   5.324938   6.249719
    15  C    4.838445   3.733370   4.223740   5.582222   6.354771
    16  C    3.547095   2.980435   3.677620   4.689751   5.042349
    17  O    2.772032   2.673922   3.459177   4.184199   4.221008
    18  O    4.934522   4.383067   4.910524   5.857900   6.251393
    19  C    3.891256   2.937901   3.029733   4.012302   4.764428
    20  O    3.219691   2.647429   2.786268   3.434222   3.910118
    21  O    5.293301   4.323034   4.177314   5.031289   5.898715
    22  C    5.375441   5.177625   5.827342   6.590718   6.715191
    23  H    6.433109   6.179201   6.740324   7.493432   7.671004
    24  H    5.050837   5.021805   5.579694   6.135633   6.127466
    25  H    5.307789   5.258183   6.130030   6.945648   6.952059
    26  C    5.672895   4.850947   4.416994   4.892260   5.730101
    27  H    6.741294   5.899278   5.428532   5.874522   6.741795
    28  H    5.394401   4.820769   4.534538   4.853770   5.450388
    29  H    5.480336   4.594091   3.873196   4.205607   5.181948
    30  N    5.513354   4.248955   4.494343   5.877141   6.833535
    31  H    5.910360   4.562878   4.507115   5.813016   6.908148
    32  C    5.950289   5.002444   5.521312   6.804220   7.503834
    33  H    5.832620   4.997086   5.472791   6.635796   7.258244
    34  H    6.245940   5.443372   6.169724   7.471442   8.049833
    35  H    6.840088   5.781594   6.123734   7.407298   8.236082
    36  C    6.167549   4.992002   5.127687   6.363322   7.320868
    37  H    6.090244   5.081365   5.371629   6.545075   7.357952
    38  H    6.488609   5.256010   5.104034   6.217827   7.292104
    39  H    7.023933   5.841056   6.029365   7.311828   8.283215
    40  N    3.751307   2.470517   1.458783   2.480530   3.757067
    41  O    4.856534   3.708456   2.437720   2.830729   4.229330
    42  O    4.147846   2.746198   2.305908   3.567318   4.725027
    43  H    2.681016   2.143572   3.383418   4.566346   4.831439
                    6          7          8          9         10
     6  C    0.000000
     7  H    2.129594   0.000000
     8  H    3.417566   4.953883   0.000000
     9  H    2.148060   4.264303   2.473979   0.000000
    10  H    1.077640   2.455644   4.308053   2.482280   0.000000
    11  C    3.878564   2.808807   4.700343   5.428677   4.746130
    12  C    4.814907   4.028560   4.867861   6.046637   5.748795
    13  C    4.734583   3.686776   5.315809   6.188727   5.574254
    14  C    6.105107   5.237545   5.826378   7.264071   7.052609
    15  C    6.044651   4.981625   6.202828   7.384835   6.915422
    16  C    4.550649   3.654632   5.480194   5.984335   5.245180
    17  O    3.589419   2.873641   5.069506   5.096772   4.157312
    18  O    5.836987   5.000828   6.531186   7.121529   6.471430
    19  C    4.722465   4.340428   4.530676   5.674483   5.624060
    20  O    3.827087   3.719729   4.048850   4.753503   4.645922
    21  O    6.021125   5.750573   5.315904   6.714104   6.914985
    22  C    6.145796   5.277276   7.321759   7.491215   6.570463
    23  H    7.169194   6.350144   8.153247   8.411947   7.588127
    24  H    5.605157   5.034663   6.847874   6.805365   5.954998
    25  H    6.184359   5.001420   7.779480   7.762896   6.515211
    26  C    6.088628   6.265932   4.969324   6.367877   6.942298
    27  H    7.145122   7.315319   5.846153   7.327195   7.985158
    28  H    5.708538   5.925028   5.033557   6.028994   6.449724
    29  H    5.755702   6.220377   4.112542   5.763520   6.666552
    30  N    6.684539   5.756013   6.355097   7.854667   7.631939
    31  H    6.953537   6.299644   6.133186   7.878037   7.954604
    32  C    7.132662   5.976563   7.410250   8.501785   7.921296
    33  H    6.904271   5.889900   7.236556   8.203319   7.647012
    34  H    7.510443   6.090090   8.167960   9.068708   8.215068
    35  H    7.988331   6.942694   7.899855   9.219053   8.829411
    36  C    7.243742   6.424179   6.745772   8.284302   8.173678
    37  H    7.167726   6.246547   7.004887   8.309217   8.021242
    38  H    7.416661   6.895154   6.432694   8.187314   8.392436
    39  H    8.164343   7.209597   7.689940   9.265464   9.086668
    40  N    4.256602   4.609860   2.706035   4.615902   5.333863
    41  O    5.071833   5.801059   2.494560   4.859605   6.125824
    42  O    4.961321   4.808432   3.902355   5.663952   6.017334
    43  H    4.067622   2.487797   5.507117   5.881120   4.762064
                   11         12         13         14         15
    11  C    0.000000
    12  C    1.532515   0.000000
    13  C    1.524847   2.543109   0.000000
    14  C    2.519406   1.354722   2.875627   0.000000
    15  C    2.505002   2.852336   1.362243   2.499733   0.000000
    16  C    2.654304   3.957250   1.547262   4.410240   2.523577
    17  O    2.934916   4.393194   2.429559   5.146522   3.646024
    18  O    3.967802   5.115899   2.592223   5.287820   2.964916
    19  C    2.657815   1.534955   3.945219   2.485096   4.372277
    20  O    2.946503   2.421602   4.396493   3.615506   5.126626
    21  O    3.961287   2.570072   5.084073   2.901003   5.223176
    22  C    4.951992   6.269911   3.759721   6.570603   4.287237
    23  H    5.893682   7.130867   4.591001   7.294864   4.888819
    24  H    5.121120   6.505095   4.118639   6.978089   4.873259
    25  H    4.910676   6.285592   3.853152   6.623854   4.424384
    26  C    4.907193   3.703584   6.098123   4.209887   6.385066
    27  H    5.863005   4.553479   6.991726   4.833413   7.141650
    28  H    5.039268   4.035146   6.385046   4.775786   6.845288
    29  H    4.863401   3.790631   5.940573   4.344291   6.279339
    30  N    2.976489   2.479733   2.501660   1.483412   1.491685
    31  H    3.534635   2.968760   2.986156   2.025148   2.032530
    32  C    3.867335   4.373605   2.476134   3.901013   1.533826
    33  H    4.126775   4.889298   2.609747   4.633994   2.143781
    34  H    4.187803   4.749953   2.947007   4.287421   2.152681
    35  H    4.641652   4.876974   3.322127   4.150833   2.145172
    36  C    3.899445   2.490195   4.411036   1.545354   3.915215
    37  H    4.033192   2.652439   4.820281   2.158270   4.526379
    38  H    4.409374   2.916877   4.954783   2.156959   4.510583
    39  H    4.605879   3.351908   4.852499   2.164070   4.083645
    40  N    2.845543   2.664089   3.237022   3.293755   3.763501
    41  O    4.205388   3.842569   4.505690   4.275695   4.871705
    42  O    2.417274   2.004293   2.565760   2.254977   2.752240
    43  H    1.064808   2.097746   2.110932   3.012273   3.011075
                   16         17         18         19         20
    16  C    0.000000
    17  O    1.254041   0.000000
    18  O    1.434959   2.323232   0.000000
    19  C    5.205224   5.382517   6.464127   0.000000
    20  O    5.398887   5.281444   6.767486   1.251327   0.000000
    21  O    6.443718   6.732133   7.608531   1.428789   2.315811
    22  C    2.355999   2.630482   1.439821   7.552303   7.695910
    23  H    3.285836   3.671948   2.059451   8.465464   8.678623
    24  H    2.579549   2.380997   2.058496   7.648680   7.641048
    25  H    2.601057   2.778141   2.058331   7.566934   7.677689
    26  C    7.312898   7.433907   8.526700   2.307493   2.562478
    27  H    8.264566   8.450685   9.430638   3.247556   3.603338
    28  H    7.513997   7.479831   8.816897   2.505888   2.272993
    29  H    7.036772   7.125181   8.210669   2.556788   2.717909
    30  N    3.891896   4.903998   4.404695   3.844872   4.872943
    31  H    4.213207   5.226689   4.603629   4.164251   5.199239
    32  C    2.886088   4.129546   2.560198   5.900622   6.630328
    33  H    2.413702   3.620791   1.647820   6.379110   6.968075
    34  H    3.328867   4.482107   3.029164   6.278698   6.985996
    35  H    3.820784   5.074806   3.366171   6.366008   7.219236
    36  C    5.951436   6.661923   6.797273   2.858573   4.094949
    37  H    6.350401   6.930379   7.321111   2.666186   3.783007
    38  H    6.445889   7.109512   7.297567   2.924273   4.142741
    39  H    6.377199   7.222701   7.046630   3.916866   5.145419
    40  N    3.972765   4.183653   4.983408   2.947599   3.246985
    41  O    5.122604   5.305638   5.971733   3.829705   4.090526
    42  O    3.639823   4.179760   4.553281   2.797766   3.486657
    43  H    3.058249   3.216070   4.345015   3.044754   3.199881
                   21         22         23         24         25
    21  O    0.000000
    22  C    8.787346   0.000000
    23  H    9.647113   1.072953   0.000000
    24  H    8.936670   1.067928   1.746194   0.000000
    25  H    8.834720   1.066956   1.751531   1.743391   0.000000
    26  C    1.432571   9.666408  10.552646   9.682928   9.775945
    27  H    2.054206  10.616434  11.474186  10.669892  10.735000
    28  H    2.048046   9.850511  10.794223   9.806235   9.886259
    29  H    2.054913   9.358985  10.220608   9.303580   9.575406
    30  N    4.322911   5.764027   6.331163   6.312633   5.912509
    31  H    4.505165   6.028131   6.521221   6.517199   6.339818
    32  C    6.718939   3.753108   4.062108   4.582151   3.912742
    33  H    7.315016   2.827575   3.064422   3.655493   3.178470
    34  H    7.112940   3.936045   4.228807   4.866835   3.817806
    35  H    7.002602   4.569633   4.706549   5.398960   4.834789
    36  C    2.499463   8.085081   8.781183   8.519273   8.100760
    37  H    2.238336   8.518476   9.284818   8.923030   8.422719
    38  H    2.187887   8.633839   9.322223   8.991320   8.754702
    39  H    3.539786   8.345925   8.948566   8.892356   8.344628
    40  N    3.750467   6.149686   6.935618   6.069470   6.564437
    41  O    4.265564   7.136561   7.835745   6.984690   7.671669
    42  O    3.531533   5.853811   6.589900   5.984413   6.208987
    43  H    4.336242   5.133530   6.103655   5.355732   4.866703
                   26         27         28         29         30
    26  C    0.000000
    27  H    1.070534   0.000000
    28  H    1.071829   1.751957   0.000000
    29  H    1.068966   1.746595   1.750697   0.000000
    30  N    5.560074   6.160961   6.177946   5.538105   0.000000
    31  H    5.599508   6.143640   6.331498   5.424924   1.004308
    32  C    7.901632   8.627455   8.377570   7.778392   2.622851
    33  H    8.396859   9.186042   8.831464   8.169671   3.431479
    34  H    8.373526   9.095694   8.778744   8.366911   3.155556
    35  H    8.190422   8.821640   8.778383   8.046851   2.700968
    36  C    3.857038   4.168114   4.536470   4.247913   2.624131
    37  H    3.617622   3.917075   4.103433   4.245301   3.429629
    38  H    3.310876   3.475271   4.172101   3.599716   3.169440
    39  H    4.863446   5.057591   5.565915   5.255541   2.703806
    40  N    4.102886   4.974965   4.560589   3.463298   3.685133
    41  O    4.268727   4.977671   4.844184   3.383393   4.617534
    42  O    4.268801   5.066560   4.840558   3.849833   2.489590
    43  H    5.339485   6.278869   5.322393   5.470081   3.534991
                   31         32         33         34         35
    31  H    0.000000
    32  C    2.973002   0.000000
    33  H    3.631730   1.071038   0.000000
    34  H    3.728297   1.076368   1.752614   0.000000
    35  H    2.803508   1.071334   1.749213   1.748549   0.000000
    36  C    2.964961   5.161812   6.005195   5.447042   5.222609
    37  H    3.925076   5.809076   6.646620   5.957754   6.000339
    38  H    3.184646   5.791248   6.559975   6.222916   5.767377
    39  H    3.046448   5.083640   6.030309   5.282875   4.980868
    40  N    3.440020   5.082452   5.161510   5.871396   5.454172
    41  O    4.127221   6.084698   6.121247   6.966294   6.292267
    42  O    2.274705   4.126366   4.388069   4.900246   4.428161
    43  H    4.273920   4.201026   4.515552   4.253759   5.062487
                   36         37         38         39         40
    36  C    0.000000
    37  H    1.082141   0.000000
    38  H    1.082210   1.767019   0.000000
    39  H    1.078562   1.766828   1.765115   0.000000
    40  N    4.355037   4.845917   4.160242   5.182071   0.000000
    41  O    5.068531   5.633965   4.599054   5.865762   1.363197
    42  O    3.447823   4.079195   3.407048   4.156706   1.202824
    43  H    4.220159   4.128367   4.896016   4.862563   3.870400
                   41         42         43
    41  O    0.000000
    42  O    2.232216   0.000000
    43  H    5.222598   3.442083   0.000000
 Stoichiometry    C17H18N2O6
 Framework group  C1[X(C17H18N2O6)]
 Deg. of freedom   123
 Full point group                 C1      NOp   1
 Largest Abelian subgroup         C1      NOp   1
 Largest concise Abelian subgroup C1      NOp   1
                         Standard orientation:                         
 ---------------------------------------------------------------------
 Center     Atomic      Atomic             Coordinates (Angstroms)
 Number     Number       Type             X           Y           Z
 ---------------------------------------------------------------------
      1          6           0       -0.316582    2.385462   -1.384799
      2          6           0       -0.042298    1.283457   -0.558203
      3          6           0        0.546786    1.512173    0.699542
      4          6           0        0.882971    2.812777    1.118243
      5          6           0        0.572489    3.899173    0.293239
      6          6           0       -0.035583    3.690329   -0.957483
      7          1           0       -0.743849    2.237990   -2.344654
      8          1           0        1.377680    2.975083    2.070861
      9          1           0        0.800523    4.890655    0.615510
     10          1           0       -0.282164    4.528285   -1.588621
     11          6           0       -0.272837   -0.180774   -0.996645
     12          6           0        0.981807   -1.008725   -0.698369
     13          6           0       -1.525277   -0.762548   -0.350045
     14          6           0        0.898067   -2.310561   -0.333017
     15          6           0       -1.567847   -2.077312    0.003917
     16          6           0       -2.762376    0.141349   -0.134228
     17          8           0       -2.712967    1.354691   -0.447242
     18          8           0       -3.970940   -0.392642    0.425535
     19          6           0        2.372269   -0.369803   -0.818700
     20          8           0        2.491320    0.824211   -1.173633
     21          8           0        3.542555   -1.132289   -0.517893
     22          6           0       -5.109213    0.338048   -0.067931
     23          1           0       -6.001661   -0.052669    0.381631
     24          1           0       -5.007591    1.369847    0.188066
     25          1           0       -5.163832    0.238081   -1.128789
     26          6           0        4.541026   -0.220341   -0.044958
     27          1           0        5.448680   -0.754157    0.148041
     28          1           0        4.712617    0.525571   -0.795283
     29          1           0        4.203576    0.245283    0.856158
     30          7           0       -0.334897   -2.873810    0.269528
     31          1           0       -0.200024   -2.896592    1.264478
     32          6           0       -2.950757   -2.724548    0.149755
     33          1           0       -3.643748   -2.004000    0.534066
     34          1           0       -3.293795   -3.074921   -0.808438
     35          1           0       -2.889112   -3.555309    0.823396
     36          6           0        2.144310   -3.204047   -0.524534
     37          1           0        2.627039   -2.945656   -1.457934
     38          1           0        2.830360   -3.034571    0.295095
     39          1           0        1.851632   -4.242001   -0.541466
     40          7           0        0.817601    0.375022    1.572237
     41          8           0        1.434104    0.581290    2.770437
     42          8           0        0.498383   -0.732082    1.226977
     43          1           0       -0.406626   -0.209485   -2.052624
 ---------------------------------------------------------------------
 Rotational constants (GHZ):           0.3223571           0.2255477           0.1607886
 Leave Link  202 at Wed Jun  4 11:39:52 2025, MaxMem=  2147483648 cpu:               0.0 elap:               0.0
 (Enter /Apps/Gaussian/G16//g16/l301.exe)
 Standard basis: 6-311++G(2d,3p) (5D, 7F)
 Ernie: Thresh=  0.10000D-02 Tol=  0.10000D-05 Strict=F.
 There are   959 symmetry adapted cartesian basis functions of A   symmetry.
 There are   909 symmetry adapted basis functions of A   symmetry.
   909 basis functions,  1320 primitive gaussians,   959 cartesian basis functions
    91 alpha electrons       91 beta electrons
       nuclear repulsion energy      2414.1586485414 Hartrees.
 IExCor=  402 DFT=T Ex+Corr=B3LYP ExCW=0 ScaHFX=  0.200000
 ScaDFX=  0.800000  0.720000  1.000000  0.810000 ScalE2=  1.000000  1.000000
 IRadAn=      5 IRanWt=     -1 IRanGd=            0 ICorTp=0 IEmpDi=  4
 NAtoms=   43 NActive=   43 NUniq=   43 SFac= 1.00D+00 NAtFMM=   60 NAOKFM=F Big=F
 Integral buffers will be    131072 words long.
 Raffenetti 2 integral format.
 Two-electron integral symmetry is turned on.
 Leave Link  301 at Wed Jun  4 11:39:52 2025, MaxMem=  2147483648 cpu:               0.3 elap:               0.0
 (Enter /Apps/Gaussian/G16//g16/l302.exe)
 NPDir=0 NMtPBC=     1 NCelOv=     1 NCel=       1 NClECP=     1 NCelD=      1
         NCelK=      1 NCelE2=     1 NClLst=     1 CellRange=     0.0.
 One-electron integrals computed using PRISM.
 One-electron integral symmetry used in STVInt
 NBasis=   909 RedAO= T EigKep=  1.27D-06  NBF=   909
 NBsUse=   903 1.00D-06 EigRej=  8.83D-07 NBFU=   903
 Precomputing XC quadrature grid using
 IXCGrd= 4 IRadAn=           5 IRanWt=          -1 IRanGd=           0 AccXCQ= 0.00D+00.
 Generated NRdTot=       0 NPtTot=           0 NUsed=           0 NTot=          32
 NSgBfM=   946   946   946   946   946 MxSgAt=    43 MxSgA2=    43.
 Leave Link  302 at Wed Jun  4 11:39:53 2025, MaxMem=  2147483648 cpu:               8.4 elap:               0.6
 (Enter /Apps/Gaussian/G16//g16/l303.exe)
 DipDrv:  MaxL=1.
 Leave Link  303 at Wed Jun  4 11:39:53 2025, MaxMem=  2147483648 cpu:               0.9 elap:               0.1
 (Enter /Apps/Gaussian/G16//g16/l401.exe)
 ExpMin= 3.60D-02 ExpMax= 8.59D+03 ExpMxC= 1.30D+03 IAcc=3 IRadAn=         5 AccDes= 0.00D+00
 Harris functional with IExCor=  402 and IRadAn=       5 diagonalized for initial guess.
 HarFok:  IExCor=  402 AccDes= 0.00D+00 IRadAn=         5 IDoV= 1 UseB2=F ITyADJ=14
 ICtDFT=  3500011 ScaDFX=  1.000000  1.000000  1.000000  1.000000
 FoFCou: FMM=F IPFlag=           0 FMFlag=      100000 FMFlg1=           0
         NFxFlg=           0 DoJE=T BraDBF=F KetDBF=T FulRan=T
         wScrn=  0.000000 ICntrl=       500 IOpCl=  0 I1Cent=   200000004 NGrid=           0
         NMat0=    1 NMatS0=      1 NMatT0=    0 NMatD0=    1 NMtDS0=    0 NMtDT0=    0
 Petite list used in FoFCou.
 Harris En= -1219.69712737646    
 JPrj=0 DoOrth=F DoCkMO=F.
 Leave Link  401 at Wed Jun  4 11:39:56 2025, MaxMem=  2147483648 cpu:              49.3 elap:               3.5
 (Enter /Apps/Gaussian/G16//g16/l502.exe)
 Integral symmetry usage will be decided dynamically.
 Closed shell SCF:
 Using DIIS extrapolation, IDIIS=  1040.
 NGot=  2147483648 LenX=  2145622391 LenY=  2144701751
 Requested convergence on RMS density matrix=1.00D-08 within 128 cycles.
 Requested convergence on MAX density matrix=1.00D-06.
 Requested convergence on             energy=1.00D-06.
 No special actions if energy rises.
 Fock matrices will be formed incrementally for  20 cycles.

 Cycle   1  Pass 1  IDiag  1:
 FoFJK:  IHMeth= 1 ICntrl=       0 DoSepK=F KAlg= 0 I1Cent=           0 FoldK=F
 IRaf= 820000000 NMat=       1 IRICut=       1 DoRegI=T DoRafI=F ISym2E= 0 IDoP0=0 IntGTp=1.
 FoFCou: FMM=F IPFlag=           0 FMFlag=      100000 FMFlg1=           0
         NFxFlg=           0 DoJE=F BraDBF=F KetDBF=F FulRan=T
         wScrn=  0.000000 ICntrl=         0 IOpCl=  0 I1Cent=           0 NGrid=           0
         NMat0=    1 NMatS0=      1 NMatT0=    0 NMatD0=    1 NMtDS0=    0 NMtDT0=    0
 Symmetry not used in FoFCou.
 E= -1218.82585131479    
 DIIS: error= 1.58D-02 at cycle   1 NSaved=   1.
 NSaved= 1 IEnMin= 1 EnMin= -1218.82585131479     IErMin= 1 ErrMin= 1.58D-02
 ErrMax= 1.58D-02  0.00D+00 EMaxC= 1.00D-01 BMatC= 9.76D-01 BMatP= 9.76D-01
 IDIUse=3 WtCom= 8.42D-01 WtEn= 1.58D-01
 Coeff-Com:  0.100D+01
 Coeff-En:   0.100D+01
 Coeff:      0.100D+01
 Gap=     0.120 Goal=   None    Shift=    0.000
 GapD=    0.120 DampG=1.000 DampE=0.500 DampFc=0.5000 IDamp=-1.
 Damping current iteration by 5.00D-01
 RMSDP=1.01D-02 MaxDP=9.52D-01              OVMax= 3.57D-01

 Cycle   2  Pass 1  IDiag  1:
 RMSU=  5.06D-03    CP:  1.00D+00
 E= -1218.82320142321     Delta-E=        0.002649891583 Rises=F Damp=T
 DIIS: error= 9.58D-03 at cycle   2 NSaved=   2.
 NSaved= 2 IEnMin= 1 EnMin= -1218.82585131479     IErMin= 2 ErrMin= 9.58D-03
 ErrMax= 9.58D-03  0.00D+00 EMaxC= 1.00D-01 BMatC= 3.21D-01 BMatP= 9.76D-01
 IDIUse=3 WtCom= 9.04D-01 WtEn= 9.58D-02
 Coeff-Com:  0.321D+00 0.679D+00
 Coeff-En:   0.501D+00 0.499D+00
 Coeff:      0.338D+00 0.662D+00
 Gap=     0.120 Goal=   None    Shift=    0.000
 RMSDP=4.68D-03 MaxDP=5.97D-01 DE= 2.65D-03 OVMax= 4.24D-01

 Cycle   3  Pass 1  IDiag  1:
 RMSU=  2.89D-03    CP:  8.94D-01  4.32D-01
 E= -1219.29273967873     Delta-E=       -0.469538255525 Rises=F Damp=F
 DIIS: error= 1.00D-02 at cycle   3 NSaved=   3.
 NSaved= 3 IEnMin= 3 EnMin= -1219.29273967873     IErMin= 2 ErrMin= 9.58D-03
 ErrMax= 1.00D-02  0.00D+00 EMaxC= 1.00D-01 BMatC= 3.41D-01 BMatP= 3.21D-01
 IDIUse=3 WtCom= 9.00D-01 WtEn= 1.00D-01
 Coeff-Com:  0.132D+00 0.481D+00 0.387D+00
 Coeff-En:   0.367D-03 0.171D+00 0.829D+00
 Coeff:      0.119D+00 0.449D+00 0.432D+00
 Gap=     0.141 Goal=   None    Shift=    0.000
 RMSDP=3.00D-03 MaxDP=3.52D-01 DE=-4.70D-01 OVMax= 2.05D-01

 Cycle   4  Pass 1  IDiag  1:
 RMSU=  1.98D-03    CP:  9.19D-01  6.75D-01  3.77D-01
 E= -1219.50492893134     Delta-E=       -0.212189252604 Rises=F Damp=F
 DIIS: error= 6.02D-03 at cycle   4 NSaved=   4.
 NSaved= 4 IEnMin= 4 EnMin= -1219.50492893134     IErMin= 4 ErrMin= 6.02D-03
 ErrMax= 6.02D-03  0.00D+00 EMaxC= 1.00D-01 BMatC= 1.05D-01 BMatP= 3.21D-01
 IDIUse=3 WtCom= 9.40D-01 WtEn= 6.02D-02
 Coeff-Com:  0.402D-01 0.234D+00 0.334D+00 0.391D+00
 Coeff-En:   0.000D+00 0.000D+00 0.267D+00 0.733D+00
 Coeff:      0.378D-01 0.220D+00 0.330D+00 0.412D+00
 Gap=     0.122 Goal=   None    Shift=    0.000
 RMSDP=1.33D-03 MaxDP=1.19D-01 DE=-2.12D-01 OVMax= 1.29D-01

 Cycle   5  Pass 1  IDiag  1:
 RMSU=  8.34D-04    CP:  9.09D-01  6.01D-01  5.53D-01  6.03D-01
 E= -1219.57328255047     Delta-E=       -0.068353619135 Rises=F Damp=F
 DIIS: error= 2.21D-03 at cycle   5 NSaved=   5.
 NSaved= 5 IEnMin= 5 EnMin= -1219.57328255047     IErMin= 5 ErrMin= 2.21D-03
 ErrMax= 2.21D-03  0.00D+00 EMaxC= 1.00D-01 BMatC= 1.79D-02 BMatP= 1.05D-01
 IDIUse=3 WtCom= 9.78D-01 WtEn= 2.21D-02
 Coeff-Com:  0.175D-02 0.690D-01 0.155D+00 0.321D+00 0.453D+00
 Coeff-En:   0.000D+00 0.000D+00 0.000D+00 0.199D+00 0.801D+00
 Coeff:      0.171D-02 0.675D-01 0.152D+00 0.318D+00 0.461D+00
 Gap=     0.118 Goal=   None    Shift=    0.000
 RMSDP=4.83D-04 MaxDP=5.97D-02 DE=-6.84D-02 OVMax= 4.95D-02

 Cycle   6  Pass 1  IDiag  1:
 RMSU=  2.63D-04    CP:  9.03D-01  6.00D-01  5.38D-01  6.50D-01  5.53D-01
 E= -1219.58653493554     Delta-E=       -0.013252385067 Rises=F Damp=F
 DIIS: error= 6.77D-04 at cycle   6 NSaved=   6.
 NSaved= 6 IEnMin= 6 EnMin= -1219.58653493554     IErMin= 6 ErrMin= 6.77D-04
 ErrMax= 6.77D-04  0.00D+00 EMaxC= 1.00D-01 BMatC= 2.08D-03 BMatP= 1.79D-02
 IDIUse=3 WtCom= 9.93D-01 WtEn= 6.77D-03
 Coeff-Com: -0.492D-02 0.114D-01 0.489D-01 0.152D+00 0.315D+00 0.478D+00
 Coeff-En:   0.000D+00 0.000D+00 0.000D+00 0.000D+00 0.977D-01 0.902D+00
 Coeff:     -0.488D-02 0.114D-01 0.486D-01 0.151D+00 0.313D+00 0.481D+00
 Gap=     0.120 Goal=   None    Shift=    0.000
 RMSDP=1.69D-04 MaxDP=1.83D-02 DE=-1.33D-02 OVMax= 1.03D-02

 Cycle   7  Pass 1  IDiag  1:
 RMSU=  1.42D-04    CP:  9.02D-01  5.91D-01  5.37D-01  6.50D-01  6.23D-01
                    CP:  7.84D-01
 E= -1219.58789421873     Delta-E=       -0.001359283194 Rises=F Damp=F
 DIIS: error= 3.08D-04 at cycle   7 NSaved=   7.
 NSaved= 7 IEnMin= 7 EnMin= -1219.58789421873     IErMin= 7 ErrMin= 3.08D-04
 ErrMax= 3.08D-04  0.00D+00 EMaxC= 1.00D-01 BMatC= 3.70D-04 BMatP= 2.08D-03
 IDIUse=3 WtCom= 9.97D-01 WtEn= 3.08D-03
 Coeff-Com: -0.292D-02-0.818D-03 0.553D-02 0.411D-01 0.124D+00 0.338D+00
 Coeff-Com:  0.495D+00
 Coeff-En:   0.000D+00 0.000D+00 0.000D+00 0.000D+00 0.000D+00 0.178D+00
 Coeff-En:   0.822D+00
 Coeff:     -0.291D-02-0.816D-03 0.551D-02 0.410D-01 0.124D+00 0.338D+00
 Coeff:      0.496D+00
 Gap=     0.119 Goal=   None    Shift=    0.000
 RMSDP=1.03D-04 MaxDP=1.32D-02 DE=-1.36D-03 OVMax= 5.97D-03

 Cycle   8  Pass 1  IDiag  1:
 RMSU=  5.19D-05    CP:  9.04D-01  5.99D-01  5.41D-01  6.61D-01  6.42D-01
                    CP:  7.59D-01  5.19D-01
 E= -1219.58814891251     Delta-E=       -0.000254693775 Rises=F Damp=F
 DIIS: error= 1.10D-04 at cycle   8 NSaved=   8.
 NSaved= 8 IEnMin= 8 EnMin= -1219.58814891251     IErMin= 8 ErrMin= 1.10D-04
 ErrMax= 1.10D-04  0.00D+00 EMaxC= 1.00D-01 BMatC= 5.17D-05 BMatP= 3.70D-04
 IDIUse=3 WtCom= 9.99D-01 WtEn= 1.10D-03
 Coeff-Com: -0.147D-02-0.161D-02-0.124D-02 0.133D-01 0.546D-01 0.189D+00
 Coeff-Com:  0.345D+00 0.403D+00
 Coeff-En:   0.000D+00 0.000D+00 0.000D+00 0.000D+00 0.000D+00 0.000D+00
 Coeff-En:   0.131D+00 0.869D+00
 Coeff:     -0.147D-02-0.161D-02-0.123D-02 0.133D-01 0.545D-01 0.189D+00
 Coeff:      0.345D+00 0.403D+00
 Gap=     0.119 Goal=   None    Shift=    0.000
 RMSDP=2.63D-05 MaxDP=2.16D-03 DE=-2.55D-04 OVMax= 3.16D-03

 Cycle   9  Pass 1  IDiag  1:
 RMSU=  1.43D-05    CP:  9.03D-01  5.99D-01  5.40D-01  6.60D-01  6.32D-01
                    CP:  7.71D-01  5.92D-01  6.94D-01
 E= -1219.58819832579     Delta-E=       -0.000049413282 Rises=F Damp=F
 DIIS: error= 2.31D-05 at cycle   9 NSaved=   9.
 NSaved= 9 IEnMin= 9 EnMin= -1219.58819832579     IErMin= 9 ErrMin= 2.31D-05
 ErrMax= 2.31D-05  0.00D+00 EMaxC= 1.00D-01 BMatC= 2.49D-06 BMatP= 5.17D-05
 IDIUse=1 WtCom= 1.00D+00 WtEn= 0.00D+00
 Coeff-Com: -0.324D-03-0.461D-03-0.138D-02 0.126D-02 0.127D-01 0.563D-01
 Coeff-Com:  0.115D+00 0.219D+00 0.598D+00
 Coeff:     -0.324D-03-0.461D-03-0.138D-02 0.126D-02 0.127D-01 0.563D-01
 Coeff:      0.115D+00 0.219D+00 0.598D+00
 Gap=     0.119 Goal=   None    Shift=    0.000
 RMSDP=9.37D-06 MaxDP=1.80D-03 DE=-4.94D-05 OVMax= 8.15D-04

 Cycle  10  Pass 1  IDiag  1:
 RMSU=  8.21D-06    CP:  9.04D-01  5.99D-01  5.41D-01  6.61D-01  6.32D-01
                    CP:  7.73D-01  5.65D-01  6.90D-01  8.95D-01
 E= -1219.58820042846     Delta-E=       -0.000002102667 Rises=F Damp=F
 DIIS: error= 1.15D-05 at cycle  10 NSaved=  10.
 NSaved=10 IEnMin=10 EnMin= -1219.58820042846     IErMin=10 ErrMin= 1.15D-05
 ErrMax= 1.15D-05  0.00D+00 EMaxC= 1.00D-01 BMatC= 4.99D-07 BMatP= 2.49D-06
 IDIUse=1 WtCom= 1.00D+00 WtEn= 0.00D+00
 Coeff-Com: -0.520D-04-0.979D-04-0.725D-03-0.647D-03 0.201D-02 0.146D-01
 Coeff-Com:  0.335D-01 0.901D-01 0.375D+00 0.486D+00
 Coeff:     -0.520D-04-0.979D-04-0.725D-03-0.647D-03 0.201D-02 0.146D-01
 Coeff:      0.335D-01 0.901D-01 0.375D+00 0.486D+00
 Gap=     0.119 Goal=   None    Shift=    0.000
 RMSDP=3.86D-06 MaxDP=7.13D-04 DE=-2.10D-06 OVMax= 2.77D-04

 Cycle  11  Pass 1  IDiag  1:
 RMSU=  2.14D-06    CP:  9.04D-01  5.99D-01  5.40D-01  6.60D-01  6.34D-01
                    CP:  7.74D-01  5.77D-01  6.96D-01  9.25D-01  7.54D-01
 E= -1219.58820083945     Delta-E=       -0.000000410991 Rises=F Damp=F
 DIIS: error= 3.59D-06 at cycle  11 NSaved=  11.
 NSaved=11 IEnMin=11 EnMin= -1219.58820083945     IErMin=11 ErrMin= 3.59D-06
 ErrMax= 3.59D-06  0.00D+00 EMaxC= 1.00D-01 BMatC= 6.76D-08 BMatP= 4.99D-07
 IDIUse=1 WtCom= 1.00D+00 WtEn= 0.00D+00
 Coeff-Com: -0.128D-04-0.236D-04-0.318D-03-0.457D-03 0.448D-05 0.365D-02
 Coeff-Com:  0.877D-02 0.334D-01 0.173D+00 0.311D+00 0.471D+00
 Coeff:     -0.128D-04-0.236D-04-0.318D-03-0.457D-03 0.448D-05 0.365D-02
 Coeff:      0.877D-02 0.334D-01 0.173D+00 0.311D+00 0.471D+00
 Gap=     0.119 Goal=   None    Shift=    0.000
 RMSDP=9.10D-07 MaxDP=7.04D-05 DE=-4.11D-07 OVMax= 6.91D-05

 Cycle  12  Pass 1  IDiag  1:
 RMSU=  6.06D-07    CP:  9.04D-01  5.99D-01  5.40D-01  6.60D-01  6.33D-01
                    CP:  7.74D-01  5.78D-01  6.98D-01  9.20D-01  7.52D-01
                    CP:  7.96D-01
 E= -1219.58820089023     Delta-E=       -0.000000050779 Rises=F Damp=F
 DIIS: error= 1.37D-06 at cycle  12 NSaved=  12.
 NSaved=12 IEnMin=12 EnMin= -1219.58820089023     IErMin=12 ErrMin= 1.37D-06
 ErrMax= 1.37D-06  0.00D+00 EMaxC= 1.00D-01 BMatC= 8.08D-09 BMatP= 6.76D-08
 IDIUse=1 WtCom= 1.00D+00 WtEn= 0.00D+00
 Coeff-Com: -0.845D-06 0.996D-05-0.649D-04-0.148D-03-0.510D-03-0.729D-03
 Coeff-Com: -0.177D-02 0.240D-02 0.292D-01 0.918D-01 0.273D+00 0.606D+00
 Coeff:     -0.845D-06 0.996D-05-0.649D-04-0.148D-03-0.510D-03-0.729D-03
 Coeff:     -0.177D-02 0.240D-02 0.292D-01 0.918D-01 0.273D+00 0.606D+00
 Gap=     0.119 Goal=   None    Shift=    0.000
 RMSDP=4.36D-07 MaxDP=4.84D-05 DE=-5.08D-08 OVMax= 2.15D-05

 Cycle  13  Pass 1  IDiag  1:
 RMSU=  3.48D-07    CP:  9.04D-01  5.99D-01  5.40D-01  6.60D-01  6.33D-01
                    CP:  7.74D-01  5.78D-01  6.99D-01  9.28D-01  7.66D-01
                    CP:  7.96D-01  9.47D-01
 E= -1219.58820089582     Delta-E=       -0.000000005597 Rises=F Damp=F
 DIIS: error= 6.42D-07 at cycle  13 NSaved=  13.
 NSaved=13 IEnMin=13 EnMin= -1219.58820089582     IErMin=13 ErrMin= 6.42D-07
 ErrMax= 6.42D-07  0.00D+00 EMaxC= 1.00D-01 BMatC= 1.75D-09 BMatP= 8.08D-09
 IDIUse=1 WtCom= 1.00D+00 WtEn= 0.00D+00
 Coeff-Com:  0.323D-06 0.123D-04-0.833D-05-0.437D-04-0.379D-03-0.960D-03
 Coeff-Com: -0.242D-02-0.255D-02-0.254D-02 0.220D-01 0.123D+00 0.397D+00
 Coeff-Com:  0.467D+00
 Coeff:      0.323D-06 0.123D-04-0.833D-05-0.437D-04-0.379D-03-0.960D-03
 Coeff:     -0.242D-02-0.255D-02-0.254D-02 0.220D-01 0.123D+00 0.397D+00
 Coeff:      0.467D+00
 Gap=     0.119 Goal=   None    Shift=    0.000
 RMSDP=1.88D-07 MaxDP=2.11D-05 DE=-5.60D-09 OVMax= 7.88D-06

 Cycle  14  Pass 1  IDiag  1:
 RMSU=  1.20D-07    CP:  9.04D-01  5.99D-01  5.40D-01  6.60D-01  6.33D-01
                    CP:  7.74D-01  5.78D-01  7.00D-01  9.30D-01  7.69D-01
                    CP:  8.22D-01  9.73D-01  7.61D-01
 E= -1219.58820089715     Delta-E=       -0.000000001327 Rises=F Damp=F
 DIIS: error= 2.20D-07 at cycle  14 NSaved=  14.
 NSaved=14 IEnMin=14 EnMin= -1219.58820089715     IErMin=14 ErrMin= 2.20D-07
 ErrMax= 2.20D-07  0.00D+00 EMaxC= 1.00D-01 BMatC= 2.09D-10 BMatP= 1.75D-09
 IDIUse=1 WtCom= 1.00D+00 WtEn= 0.00D+00
 Coeff-Com: -0.642D-06 0.570D-05 0.420D-05 0.346D-05-0.148D-03-0.439D-03
 Coeff-Com: -0.122D-02-0.184D-02-0.639D-02-0.220D-02 0.299D-01 0.138D+00
 Coeff-Com:  0.282D+00 0.563D+00
 Coeff:     -0.642D-06 0.570D-05 0.420D-05 0.346D-05-0.148D-03-0.439D-03
 Coeff:     -0.122D-02-0.184D-02-0.639D-02-0.220D-02 0.299D-01 0.138D+00
 Coeff:      0.282D+00 0.563D+00
 Gap=     0.119 Goal=   None    Shift=    0.000
 RMSDP=7.93D-08 MaxDP=9.53D-06 DE=-1.33D-09 OVMax= 5.75D-06

 Cycle  15  Pass 1  IDiag  1:
 RMSU=  4.93D-08    CP:  9.04D-01  5.99D-01  5.40D-01  6.60D-01  6.33D-01
                    CP:  7.74D-01  5.78D-01  6.99D-01  9.29D-01  7.72D-01
                    CP:  8.26D-01  9.70D-01  7.55D-01  8.54D-01
 E= -1219.58820089724     Delta-E=       -0.000000000094 Rises=F Damp=F
 DIIS: error= 1.13D-07 at cycle  15 NSaved=  15.
 NSaved=15 IEnMin=15 EnMin= -1219.58820089724     IErMin=15 ErrMin= 1.13D-07
 ErrMax= 1.13D-07  0.00D+00 EMaxC= 1.00D-01 BMatC= 2.69D-11 BMatP= 2.09D-10
 IDIUse=1 WtCom= 1.00D+00 WtEn= 0.00D+00
 Coeff-Com: -0.457D-06 0.179D-05 0.339D-05 0.850D-05-0.399D-04-0.135D-03
 Coeff-Com: -0.415D-03-0.768D-03-0.358D-02-0.469D-02 0.968D-03 0.248D-01
 Coeff-Com:  0.963D-01 0.335D+00 0.552D+00
 Coeff:     -0.457D-06 0.179D-05 0.339D-05 0.850D-05-0.399D-04-0.135D-03
 Coeff:     -0.415D-03-0.768D-03-0.358D-02-0.469D-02 0.968D-03 0.248D-01
 Coeff:      0.963D-01 0.335D+00 0.552D+00
 Gap=     0.119 Goal=   None    Shift=    0.000
 RMSDP=2.94D-08 MaxDP=3.91D-06 DE=-9.41D-11 OVMax= 1.47D-06

 Cycle  16  Pass 1  IDiag  1:
 RMSU=  1.67D-08    CP:  9.04D-01  5.99D-01  5.40D-01  6.60D-01  6.33D-01
                    CP:  7.74D-01  5.78D-01  6.99D-01  9.29D-01  7.72D-01
                    CP:  8.31D-01  9.77D-01  7.70D-01  9.34D-01  8.10D-01
 E= -1219.58820089730     Delta-E=       -0.000000000058 Rises=F Damp=F
 DIIS: error= 2.61D-08 at cycle  16 NSaved=  16.
 NSaved=16 IEnMin=16 EnMin= -1219.58820089730     IErMin=16 ErrMin= 2.61D-08
 ErrMax= 2.61D-08  0.00D+00 EMaxC= 1.00D-01 BMatC= 1.84D-12 BMatP= 2.69D-11
 IDIUse=1 WtCom= 1.00D+00 WtEn= 0.00D+00
 Coeff-Com: -0.102D-06 0.342D-06 0.920D-06 0.382D-05-0.628D-05-0.200D-04
 Coeff-Com: -0.784D-04-0.164D-03-0.990D-03-0.190D-02-0.222D-02-0.196D-02
 Coeff-Com:  0.188D-01 0.109D+00 0.275D+00 0.604D+00
 Coeff:     -0.102D-06 0.342D-06 0.920D-06 0.382D-05-0.628D-05-0.200D-04
 Coeff:     -0.784D-04-0.164D-03-0.990D-03-0.190D-02-0.222D-02-0.196D-02
 Coeff:      0.188D-01 0.109D+00 0.275D+00 0.604D+00
 Gap=     0.119 Goal=   None    Shift=    0.000
 RMSDP=7.54D-09 MaxDP=6.99D-07 DE=-5.78D-11 OVMax= 5.89D-07

 SCF Done:  E(RB3LYP) =  -1219.58820090     A.U. after   16 cycles
            NFock= 16  Conv=0.75D-08     -V/T= 2.0042
 KE= 1.214462506641D+03 PE=-7.678926294072D+03 EE= 2.830716937992D+03
 Leave Link  502 at Wed Jun  4 11:50:42 2025, MaxMem=  2147483648 cpu:            9036.5 elap:             645.6
 (Enter /Apps/Gaussian/G16//g16/l601.exe)
 Copying SCF densities to generalized density rwf, IOpCl= 0 IROHF=0.

 **********************************************************************

            Population analysis using the SCF density.

 **********************************************************************

 Orbital symmetries:
       Occupied  (A) (A) (A) (A) (A) (A) (A) (A) (A) (A) (A) (A)
                 (A) (A) (A) (A) (A) (A) (A) (A) (A) (A) (A) (A)
                 (A) (A) (A) (A) (A) (A) (A) (A) (A) (A) (A) (A)
                 (A) (A) (A) (A) (A) (A) (A) (A) (A) (A) (A) (A)
                 (A) (A) (A) (A) (A) (A) (A) (A) (A) (A) (A) (A)
                 (A) (A) (A) (A) (A) (A) (A) (A) (A) (A) (A) (A)
                 (A) (A) (A) (A) (A) (A) (A) (A) (A) (A) (A) (A)
                 (A) (A) (A) (A) (A) (A) (A)
       Virtual   (A) (A) (A) (A) (A) (A) (A) (A) (A) (A) (A) (A)
                 (A) (A) (A) (A) (A) (A) (A) (A) (A) (A) (A) (A)
                 (A) (A) (A) (A) (A) (A) (A) (A) (A) (A) (A) (A)
                 (A) (A) (A) (A) (A) (A) (A) (A) (A) (A) (A) (A)
                 (A) (A) (A) (A) (A) (A) (A) (A) (A) (A) (A) (A)
                 (A) (A) (A) (A) (A) (A) (A) (A) (A) (A) (A) (A)
                 (A) (A) (A) (A) (A) (A) (A) (A) (A) (A) (A) (A)
                 (A) (A) (A) (A) (A) (A) (A) (A) (A) (A) (A) (A)
                 (A) (A) (A) (A) (A) (A) (A) (A) (A) (A) (A) (A)
                 (A) (A) (A) (A) (A) (A) (A) (A) (A) (A) (A) (A)
                 (A) (A) (A) (A) (A) (A) (A) (A) (A) (A) (A) (A)
                 (A) (A) (A) (A) (A) (A) (A) (A) (A) (A) (A) (A)
                 (A) (A) (A) (A) (A) (A) (A) (A) (A) (A) (A) (A)
                 (A) (A) (A) (A) (A) (A) (A) (A) (A) (A) (A) (A)
                 (A) (A) (A) (A) (A) (A) (A) (A) (A) (A) (A) (A)
                 (A) (A) (A) (A) (A) (A) (A) (A) (A) (A) (A) (A)
                 (A) (A) (A) (A) (A) (A) (A) (A) (A) (A) (A) (A)
                 (A) (A) (A) (A) (A) (A) (A) (A) (A) (A) (A) (A)
                 (A) (A) (A) (A) (A) (A) (A) (A) (A) (A) (A) (A)
                 (A) (A) (A) (A) (A) (A) (A) (A) (A) (A) (A) (A)
                 (A) (A) (A) (A) (A) (A) (A) (A) (A) (A) (A) (A)
                 (A) (A) (A) (A) (A) (A) (A) (A) (A) (A) (A) (A)
                 (A) (A) (A) (A) (A) (A) (A) (A) (A) (A) (A) (A)
                 (A) (A) (A) (A) (A) (A) (A) (A) (A) (A) (A) (A)
                 (A) (A) (A) (A) (A) (A) (A) (A) (A) (A) (A) (A)
                 (A) (A) (A) (A) (A) (A) (A) (A) (A) (A) (A) (A)
                 (A) (A) (A) (A) (A) (A) (A) (A) (A) (A) (A) (A)
                 (A) (A) (A) (A) (A) (A) (A) (A) (A) (A) (A) (A)
                 (A) (A) (A) (A) (A) (A) (A) (A) (A) (A) (A) (A)
                 (A) (A) (A) (A) (A) (A) (A) (A) (A) (A) (A) (A)
                 (A) (A) (A) (A) (A) (A) (A) (A) (A) (A) (A) (A)
                 (A) (A) (A) (A) (A) (A) (A) (A) (A) (A) (A) (A)
                 (A) (A) (A) (A) (A) (A) (A) (A) (A) (A) (A) (A)
                 (A) (A) (A) (A) (A) (A) (A) (A) (A) (A) (A) (A)
                 (A) (A) (A) (A) (A) (A) (A) (A) (A) (A) (A) (A)
                 (A) (A) (A) (A) (A) (A) (A) (A) (A) (A) (A) (A)
                 (A) (A) (A) (A) (A) (A) (A) (A) (A) (A) (A) (A)
                 (A) (A) (A) (A) (A) (A) (A) (A) (A) (A) (A) (A)
                 (A) (A) (A) (A) (A) (A) (A) (A) (A) (A) (A) (A)
                 (A) (A) (A) (A) (A) (A) (A) (A) (A) (A) (A) (A)
                 (A) (A) (A) (A) (A) (A) (A) (A) (A) (A) (A) (A)
                 (A) (A) (A) (A) (A) (A) (A) (A) (A) (A) (A) (A)
                 (A) (A) (A) (A) (A) (A) (A) (A) (A) (A) (A) (A)
                 (A) (A) (A) (A) (A) (A) (A) (A) (A) (A) (A) (A)
                 (A) (A) (A) (A) (A) (A) (A) (A) (A) (A) (A) (A)
                 (A) (A) (A) (A) (A) (A) (A) (A) (A) (A) (A) (A)
                 (A) (A) (A) (A) (A) (A) (A) (A) (A) (A) (A) (A)
                 (A) (A) (A) (A) (A) (A) (A) (A) (A) (A) (A) (A)
                 (A) (A) (A) (A) (A) (A) (A) (A) (A) (A) (A) (A)
                 (A) (A) (A) (A) (A) (A) (A) (A) (A) (A) (A) (A)
                 (A) (A) (A) (A) (A) (A) (A) (A) (A) (A) (A) (A)
                 (A) (A) (A) (A) (A) (A) (A) (A) (A) (A) (A) (A)
                 (A) (A) (A) (A) (A) (A) (A) (A) (A) (A) (A) (A)
                 (A) (A) (A) (A) (A) (A) (A) (A) (A) (A) (A) (A)
                 (A) (A) (A) (A) (A) (A) (A) (A) (A) (A) (A) (A)
                 (A) (A) (A) (A) (A) (A) (A) (A) (A) (A) (A) (A)
                 (A) (A) (A) (A) (A) (A) (A) (A) (A) (A) (A) (A)
                 (A) (A) (A) (A) (A) (A) (A) (A) (A) (A) (A) (A)
                 (A) (A) (A) (A) (A) (A) (A) (A) (A) (A) (A) (A)
                 (A) (A) (A) (A) (A) (A) (A) (A) (A) (A) (A) (A)
                 (A) (A) (A) (A) (A) (A) (A) (A) (A) (A) (A) (A)
                 (A) (A) (A) (A) (A) (A) (A) (A) (A) (A) (A) (A)
                 (A) (A) (A) (A) (A) (A) (A) (A) (A) (A) (A) (A)
                 (A) (A) (A) (A) (A) (A) (A) (A) (A) (A) (A) (A)
                 (A) (A) (A) (A) (A) (A) (A) (A) (A) (A) (A) (A)
                 (A) (A) (A) (A) (A) (A) (A) (A) (A) (A) (A) (A)
                 (A) (A) (A) (A) (A) (A) (A) (A) (A) (A) (A) (A)
                 (A) (A) (A) (A) (A) (A) (A) (A)
 The electronic state is 1-A.
 Alpha  occ. eigenvalues --  -19.17907 -19.17740 -19.17282 -19.12693 -19.12574
 Alpha  occ. eigenvalues --  -19.12509 -14.52884 -14.35230 -10.33061 -10.32431
 Alpha  occ. eigenvalues --  -10.25230 -10.24173 -10.23396 -10.22387 -10.22218
 Alpha  occ. eigenvalues --  -10.22155 -10.21551 -10.21244 -10.21119 -10.19272
 Alpha  occ. eigenvalues --  -10.19024 -10.18490 -10.18430 -10.17120 -10.16118
 Alpha  occ. eigenvalues --   -1.21976  -1.09613  -1.09469  -1.01774  -1.01524
 Alpha  occ. eigenvalues --   -0.99783  -0.94821  -0.88699  -0.83824  -0.82658
 Alpha  occ. eigenvalues --   -0.80332  -0.77333  -0.74381  -0.73103  -0.71927
 Alpha  occ. eigenvalues --   -0.70848  -0.69932  -0.67029  -0.62199  -0.62073
 Alpha  occ. eigenvalues --   -0.61491  -0.59900  -0.57226  -0.56444  -0.54819
 Alpha  occ. eigenvalues --   -0.53141  -0.52351  -0.52013  -0.50556  -0.50026
 Alpha  occ. eigenvalues --   -0.49521  -0.49158  -0.48412  -0.48249  -0.48030
 Alpha  occ. eigenvalues --   -0.46990  -0.46098  -0.45138  -0.44433  -0.43738
 Alpha  occ. eigenvalues --   -0.43173  -0.42897  -0.42443  -0.41927  -0.40763
 Alpha  occ. eigenvalues --   -0.40194  -0.40018  -0.39350  -0.38746  -0.37837
 Alpha  occ. eigenvalues --   -0.37070  -0.36484  -0.35535  -0.35261  -0.33165
 Alpha  occ. eigenvalues --   -0.32149  -0.31226  -0.30771  -0.30746  -0.30198
 Alpha  occ. eigenvalues --   -0.29228  -0.27545  -0.26672  -0.25670  -0.24475
 Alpha  occ. eigenvalues --   -0.21942
 Alpha virt. eigenvalues --   -0.09994  -0.08085  -0.06424  -0.02517  -0.01422
 Alpha virt. eigenvalues --   -0.00665  -0.00333  -0.00050   0.00554   0.00669
 Alpha virt. eigenvalues --    0.01475   0.02042   0.02154   0.02532   0.02947
 Alpha virt. eigenvalues --    0.03381   0.03681   0.03732   0.03977   0.04307
 Alpha virt. eigenvalues --    0.04436   0.04866   0.05437   0.05848   0.06366
 Alpha virt. eigenvalues --    0.06782   0.06977   0.07518   0.07617   0.08137
 Alpha virt. eigenvalues --    0.08259   0.08460   0.09024   0.09455   0.09830
 Alpha virt. eigenvalues --    0.09945   0.10215   0.10501   0.10833   0.10934
 Alpha virt. eigenvalues --    0.11200   0.11344   0.11646   0.11859   0.12086
 Alpha virt. eigenvalues --    0.12313   0.12398   0.12460   0.12602   0.12793
 Alpha virt. eigenvalues --    0.13023   0.13421   0.13460   0.13750   0.14167
 Alpha virt. eigenvalues --    0.14589   0.14701   0.14921   0.15117   0.15544
 Alpha virt. eigenvalues --    0.15732   0.15796   0.16221   0.16278   0.16536
 Alpha virt. eigenvalues --    0.16822   0.17398   0.17421   0.17643   0.17892
 Alpha virt. eigenvalues --    0.18174   0.18226   0.18555   0.18879   0.18951
 Alpha virt. eigenvalues --    0.19294   0.19648   0.19962   0.20210   0.20503
 Alpha virt. eigenvalues --    0.20660   0.21158   0.21384   0.21551   0.22030
 Alpha virt. eigenvalues --    0.22476   0.22770   0.23239   0.23517   0.23653
 Alpha virt. eigenvalues --    0.23972   0.24133   0.24481   0.24968   0.25231
 Alpha virt. eigenvalues --    0.25322   0.25737   0.26141   0.26436   0.26647
 Alpha virt. eigenvalues --    0.26846   0.27186   0.27461   0.27872   0.28248
 Alpha virt. eigenvalues --    0.28342   0.28605   0.28660   0.29083   0.29232
 Alpha virt. eigenvalues --    0.29519   0.29686   0.30386   0.30715   0.30859
 Alpha virt. eigenvalues --    0.31136   0.31383   0.31500   0.31696   0.32360
 Alpha virt. eigenvalues --    0.32603   0.32894   0.33078   0.33173   0.33478
 Alpha virt. eigenvalues --    0.33839   0.33966   0.34080   0.34802   0.34900
 Alpha virt. eigenvalues --    0.35331   0.35462   0.35619   0.36041   0.36366
 Alpha virt. eigenvalues --    0.36684   0.36800   0.37125   0.37380   0.37820
 Alpha virt. eigenvalues --    0.38190   0.38452   0.39230   0.39290   0.39435
 Alpha virt. eigenvalues --    0.40096   0.40276   0.40503   0.40600   0.40899
 Alpha virt. eigenvalues --    0.41339   0.41766   0.42115   0.42519   0.43064
 Alpha virt. eigenvalues --    0.43874   0.43938   0.44418   0.45111   0.45468
 Alpha virt. eigenvalues --    0.45762   0.46754   0.46939   0.47388   0.47482
 Alpha virt. eigenvalues --    0.48001   0.48341   0.48787   0.48882   0.49455
 Alpha virt. eigenvalues --    0.49901   0.50049   0.50585   0.51370   0.51434
 Alpha virt. eigenvalues --    0.51648   0.52031   0.52101   0.52520   0.52689
 Alpha virt. eigenvalues --    0.52778   0.53471   0.54144   0.54191   0.54702
 Alpha virt. eigenvalues --    0.55300   0.55620   0.55887   0.56261   0.56959
 Alpha virt. eigenvalues --    0.57053   0.57499   0.57812   0.58142   0.58356
 Alpha virt. eigenvalues --    0.58496   0.58727   0.59271   0.59423   0.60910
 Alpha virt. eigenvalues --    0.61457   0.61522   0.61714   0.61999   0.62462
 Alpha virt. eigenvalues --    0.62896   0.63070   0.63758   0.64223   0.64533
 Alpha virt. eigenvalues --    0.65142   0.65694   0.65935   0.66179   0.66681
 Alpha virt. eigenvalues --    0.66997   0.67536   0.67940   0.68271   0.68983
 Alpha virt. eigenvalues --    0.69302   0.70251   0.70541   0.70792   0.71147
 Alpha virt. eigenvalues --    0.71372   0.72003   0.72049   0.72996   0.73395
 Alpha virt. eigenvalues --    0.73631   0.73927   0.74509   0.74853   0.75029
 Alpha virt. eigenvalues --    0.75746   0.76079   0.76373   0.76852   0.77364
 Alpha virt. eigenvalues --    0.77562   0.78612   0.78905   0.79183   0.79612
 Alpha virt. eigenvalues --    0.79813   0.80332   0.80588   0.81152   0.81311
 Alpha virt. eigenvalues --    0.82012   0.82415   0.82705   0.83297   0.83484
 Alpha virt. eigenvalues --    0.84254   0.84633   0.84930   0.85593   0.86087
 Alpha virt. eigenvalues --    0.86145   0.86688   0.86928   0.87427   0.88354
 Alpha virt. eigenvalues --    0.88699   0.88878   0.88902   0.89772   0.89920
 Alpha virt. eigenvalues --    0.90418   0.90969   0.91262   0.91654   0.92229
 Alpha virt. eigenvalues --    0.92497   0.92718   0.93004   0.94051   0.94758
 Alpha virt. eigenvalues --    0.95169   0.95734   0.95909   0.96677   0.96924
[...]
 -0.00000046,0.00000251,-0.00014059,0.00008292,0.00067220,0.00005035,-0
 .00002371,0.00003503,-0.00007529,0.00000319,-0.00011883,-0.00005778,0.
 00004427,-0.00011532,0.00300711,-0.00119867,0.00066554,0.00013911,-0.0
 0009341,-0.00058575,-0.00011185,0.00004002,0.00002834,-0.00000250,-0.0
 0000796,0.00002661,-0.00000130,-0.00000405,0.00002665,-0.00000160,0.00
 000710,-0.00002332,-0.10919230,0.04582095,-0.12139602,-0.01246074,0.00
 712398,-0.00913043,-0.01608223,0.00417021,-0.00987031,0.11516509,-0.04
 748170,0.13505562,0.00087881,-0.00657417,0.00118896,-0.03555034,0.0034
 4249,0.00609236,-0.12525549,0.00671357,0.00185141,-0.01679645,0.026805
 03,-0.00797570,0.00734939,-0.00117150,0.00035600,-0.00009449,-0.001758
 40,-0.00018597,-0.00004192,0.00069766,0.00015225,0.00065792,-0.0038716
 2,0.00149598,0.00072330,-0.00057508,0.00029953,-0.00002223,-0.00003951
 ,-0.00013322,0.00225221,-0.00131424,-0.00146847,-0.00057637,-0.0008465
 0,-0.00101483,-0.00197860,0.00069135,0.00097341,0.00163752,-0.00072797
 ,0.00094247,0.00263259,-0.00066814,-0.00153973,0.00200373,-0.00096746,
 0.00052068,-0.00137543,0.00121437,-0.00065719,-0.00031601,0.00017866,-
 0.00092627,0.00346901,-0.00171560,-0.00094530,-0.00182754,0.00172442,0
 .00059875,-0.00153477,0.00026935,0.00151456,-0.00009316,-0.00011902,0.
 00013512,-0.00001271,0.00003142,-0.00005869,0.00003160,0.00000399,0.00
 004880,0.00002113,-0.00001120,0.00002750,0.00003034,0.00010164,-0.0001
 3399,-0.00001966,0.00008145,0.00009311,-0.00001167,-0.00010170,0.00001
 223,0.00018279,-0.00002309,0.00002544,-0.00251710,0.00218388,0.0002968
 2,0.00040174,0.00038463,-0.00010427,-0.00012653,0.00006808,-0.00018130
 ,0.00001793,0.00017673,-0.00025791,-0.00008443,-0.00001152,-0.00007739
 ,-0.00014486,0.00012302,-0.00008632,-0.00023728,0.00031876,-0.00005222
 ,-0.00029760,-0.00012127,0.00012638,-0.00021446,0.00055959,0.00069838,
 -0.00016853,0.00024198,0.00004267,0.64025973,-0.00648673,-0.00236775,0
 .00289689,-0.01283936,0.02277792,-0.00404037,-0.00352658,-0.11688364,-
 0.00020028,0.04484077,-0.01308422,0.00131697,-0.00142657,-0.00803375,0
 .00259454,-0.00158216,-0.00222157,-0.00020430,-0.00159892,0.00104815,0
 .00025180,0.00093310,-0.00076445,-0.00118239,0.00172441,-0.00023063,-0
 .00013956,-0.00007557,-0.00001570,-0.00043105,-0.00148034,-0.00003685,
 -0.00134523,0.00069666,0.00046476,0.00306690,0.00205983,-0.00044445,-0
 .00077088,-0.00065425,-0.00374420,-0.00230173,-0.00315583,-0.00055229,
 0.00250542,-0.00367951,0.00100042,0.00143210,0.00230502,-0.00127852,0.
 00021674,0.00072499,0.00003636,-0.00061097,-0.00209931,0.00170774,-0.0
 0532038,0.00212977,-0.00163134,0.00149393,-0.00044148,-0.00004146,0.00
 204418,-0.00037956,0.00008134,0.00036195,0.00000616,-0.00000629,-0.000
 03909,0.00003859,-0.00003433,-0.00006819,0.00007561,0.00002360,-0.0000
 4707,-0.00013261,0.00029005,-0.00055845,0.00000153,0.00004025,0.000096
 46,0.00001427,-0.00005957,0.00012322,0.00013283,-0.00005874,0.00017599
 ,0.00212979,0.00218833,-0.00127043,0.00010378,-0.00080804,-0.00005515,
 0.00019820,-0.00003339,0.00000896,-0.00005078,-0.00014617,0.00023018,0
 .00006780,0.00008489,0.00001407,0.00005227,-0.00010588,0.00007745,0.00
 022615,0.00024679,-0.00007705,-0.00004857,0.00007742,0.00008769,-0.000
 04019,0.00028211,-0.00010642,0.00009723,-0.00016231,0.00001907,-0.0655
 2183,0.43006082,0.00158106,0.00013512,0.00813526,0.00327171,-0.0001987
 4,-0.00267496,-0.00371274,-0.00556475,-0.06737945,-0.00075140,-0.00342
 705,-0.00116425,-0.00040500,0.00193047,0.00718840,0.00068840,0.0008497
 4,-0.00122987,0.00019032,0.00010339,0.00080620,-0.00004719,0.00220133,
 -0.00313081,-0.00004781,0.00018897,0.00083108,0.00006305,0.00004383,-0
 .00133337,0.00073925,-0.00031709,-0.00257443,-0.00272932,0.00268432,-0
 .00214401,-0.00067828,0.00036152,-0.00004174,0.00388927,-0.00243925,0.
 00868913,0.00066827,0.00239913,-0.00102504,0.00242788,-0.00031784,-0.0
 0099305,-0.00167076,0.00057508,-0.00004221,-0.00061091,-0.00017919,0.0
 0039014,-0.00094826,-0.00191974,0.00462839,-0.00044901,0.00103357,-0.0
 0142726,0.00147464,0.00027852,-0.00235556,0.00041773,0.00001575,-0.000
 43126,0.00002165,0.00000957,0.00003804,-0.00000570,0.00002827,0.000036
 07,-0.00009413,-0.00003998,0.00002331,0.00002295,-0.00038066,0.0000951
 1,-0.00002589,-0.00006338,-0.00010425,0.00004659,0.00013469,-0.0000551
 2,-0.00023963,0.00003540,-0.00020322,-0.00334981,-0.00183684,-0.006396
 23,0.00009937,0.00135253,0.00013681,-0.00025799,0.00000190,-0.00019493
 ,0.00013035,0.00027124,-0.00045735,-0.00007431,-0.00013489,-0.00000097
 ,0.00001546,0.00013150,-0.00004311,0.00012360,-0.00015681,0.00073399,0
 .00004572,0.00021864,-0.00026885,0.00036038,-0.00061213,-0.00062549,-0
 .00020291,0.00025079,-0.00013136,-0.06690380,-0.26774917,0.71362569,-0
 .00204538,-0.00017099,-0.00245105,-0.00042495,0.00650630,0.00081744,-0
 .03674323,-0.01136012,0.04024016,-0.00303930,-0.00309435,0.00381468,0.
 00014029,0.00018128,-0.00154139,-0.00078332,-0.00045534,0.00033953,-0.
 00066631,0.00027627,-0.00026580,-0.00054285,0.00153896,0.00081934,-0.0
 0030961,0.00021691,-0.00008293,0.00001972,0.00012330,0.00037410,-0.000
 39435,0.00139432,0.00156497,-0.00027295,0.00015820,-0.00045730,0.00064
 512,-0.00087832,-0.00011467,0.00003326,0.00028038,0.00153313,-0.000812
 75,0.00055202,0.00016186,-0.00015762,0.00033316,-0.00079530,0.00015478
 ,-0.00040416,0.00033906,-0.00001405,-0.00013454,0.00074148,-0.00158575
 ,0.00042059,0.00180772,0.00064166,-0.00050914,-0.00070207,0.00105277,-
 0.00012693,-0.00137268,0.00020052,0.00005517,-0.00023297,0.00001223,-0
 .00001614,0.00004775,-0.00003058,0.00000780,-0.00001048,-0.00004467,-0
 .00000265,-0.00000266,-0.00000229,-0.00012110,0.00020050,0.00001145,-0
 .00006697,-0.00008100,0.00000887,0.00007367,-0.00003444,-0.00014373,0.
 00002584,-0.00005005,0.00032095,-0.00243851,-0.00088133,-0.00025040,0.
 00020403,0.00007679,-0.00001043,0.00005233,0.00002411,0.00002766,0.000
 00850,-0.00000567,0.00001782,-0.00002965,0.00002327,0.00007830,-0.0000
 3279,0.00002099,0.00008171,-0.00016807,0.00019355,0.00016021,0.0001015
 1,-0.00012722,0.00011268,-0.00036455,-0.00045247,0.00002037,-0.0000768
 3,-0.00001446,-0.27820723,-0.05005679,0.18427502,0.27529441,0.00092136
 ,0.00116447,-0.00104138,0.00234657,-0.00285221,-0.00071179,-0.00063030
 ,0.02230644,0.00240219,0.00128910,-0.00486847,0.00019467,-0.00106543,0
 .00168240,-0.00084268,0.00072807,0.00062315,0.00017178,0.00026189,-0.0
 0022565,0.00009958,0.00108820,0.00168634,-0.00018893,-0.00025515,-0.00
 001806,-0.00015646,0.00014028,0.00011548,0.00016501,-0.00002682,0.0001
 4862,0.00087368,-0.00049230,-0.00076931,-0.00084030,-0.00058310,-0.000
 29203,0.00049052,0.00017831,0.00056378,0.00059368,0.00076625,0.0001461
 4,-0.00067663,0.00124596,-0.00028206,-0.00061184,-0.00073202,0.0003665
 9,-0.00003732,-0.00024959,-0.00003430,0.00033058,0.00075457,-0.0003315
 6,0.00145658,-0.00065278,0.00040480,-0.00047937,0.00001418,-0.00003251
 ,-0.00060250,0.00016705,-0.00001737,-0.00017385,0.00000157,-0.00000143
 ,0.00002148,-0.00001972,0.00001400,0.00002106,-0.00003395,-0.00000874,
 0.00001637,0.00007551,-0.00009223,0.00030881,0.00001000,-0.00001530,-0
 .00003099,-0.00001961,0.00001545,-0.00004885,-0.00003968,0.00002483,-0
 .00004422,-0.00048029,-0.00154135,0.00042788,-0.00006119,0.00035298,-0
 .00000890,-0.00006367,0.00003817,-0.00001137,0.00001892,0.00006957,-0.
 00009793,-0.00003174,-0.00003159,-0.00001588,-0.00001417,0.00004251,-0
 .00003405,-0.00006116,-0.00003371,-0.00009605,-0.00005025,-0.00005993,
 0.00002038,-0.00003243,0.00007430,0.00019655,-0.00004459,0.00006016,0.
 00001664,-0.04899594,-0.11729336,0.09700340,0.06594775,0.10052538,0.00
 073949,0.00086544,0.00016874,-0.00000155,-0.00365526,0.00184172,0.0287
 4144,0.00851180,-0.00396524,-0.00197017,0.00404121,-0.00048533,0.00084
 887,-0.00043438,0.00026971,-0.00037133,-0.00020222,-0.00001800,0.00029
 683,-0.00017868,-0.00015529,-0.00029071,-0.00147590,-0.00016733,0.0000
 7691,-0.00007595,-0.00007217,-0.00005767,-0.00011666,-0.00005688,0.000
 17053,-0.00021824,-0.00090437,0.00107564,-0.00197161,0.00143792,0.0000
 9442,0.00059579,-0.00023623,-0.00213733,0.00043863,-0.00471510,-0.0002
 9508,-0.00112674,0.00058360,-0.00131589,0.00016226,0.00078828,0.000843
 54,-0.00024232,-0.00005231,0.00031256,0.00009812,-0.00044253,0.0010218
 6,0.00063357,-0.00292090,0.00003773,-0.00028825,0.00095893,-0.00107395
 ,-0.00007986,0.00165402,-0.00027242,-0.00001182,0.00028630,-0.00001260
 ,0.00000044,-0.00003226,0.00002076,-0.00001719,-0.00001953,0.00006086,
 0.00001742,-0.00001506,0.00000068,0.00027393,-0.00010187,0.00001324,0.
 00005047,0.00007658,-0.00003222,-0.00010224,0.00004935,0.00017574,-0.0
 0003357,0.00012927,0.00139590,0.00262502,0.00281955,0.00009574,-0.0006
 5768,-0.00011083,0.00012942,-0.00006983,0.00012441,-0.00008532,-0.0001
 5809,0.00026364,0.00004273,0.00007844,0.00001354,-0.00002085,-0.000070
 03,0.00001630,-0.00016003,0.00021403,-0.00028270,-0.00007485,-0.000118
 97,0.00015022,-0.00022230,0.00052571,0.00043527,0.00010629,-0.00010578
 ,0.00007832,0.18115935,0.09204213,-0.31913060,-0.23471979,-0.15701370,
 0.41275855,0.00073429,-0.00041720,0.00082934,0.00090716,0.00145058,-0.
 00149147,-0.01487135,0.03207179,-0.03479705,-0.00520022,-0.00405324,-0
 .00000267,-0.00136993,0.00184730,0.00172097,-0.00006950,0.00119417,-0.
 00032430,-0.00022941,0.00010044,-0.00001537,0.00016468,0.00019008,-0.0
 0121557,-0.00067185,0.00031422,0.00025082,-0.00007561,-0.00001967,-0.0
 0018447,-0.00042417,0.00135065,0.00014360,0.00037401,-0.00104606,0.000
 19080,0.00032978,-0.00164843,-0.00003379,-0.00142909,0.00024061,-0.002
 30045,-0.00316151,-0.00090179,0.00132506,-0.00111597,0.00034278,-0.000
 55664,0.00071158,-0.00063368,0.00044328,0.00028572,-0.00009500,0.00056
 093,-0.00128905,0.00070083,-0.00040265,0.00080297,-0.00080749,-0.00003
 637,0.00039912,-0.00020205,-0.00027724,-0.00000229,0.00005073,-0.00003
 099,-0.00000029,-0.00001875,0.00003316,-0.00002265,-0.00000655,-0.0000
 2702,0.00000104,0.00001532,-0.00001334,-0.00000701,0.00004746,0.000048
 15,0.00001497,-0.00001804,-0.00002167,-0.00000748,0.00001582,0.0000085
 2,-0.00002608,0.00000036,0.00001806,0.00204407,0.00001311,0.00057299,-
 0.00018762,-0.00064019,-0.00003623,0.00004037,-0.00004360,0.00003927,-
 0.00005683,-0.00012707,0.00029764,0.00009922,0.00004130,0.00010244,0.0
 0011603,-0.00015057,0.00006212,0.00003400,-0.00007824,-0.00017029,0.00
 013975,-0.00001111,0.00000949,-0.00000962,-0.00008364,-0.00014620,0.00
 014480,-0.00019695,0.00002620,-0.19498155,0.09651514,-0.11734319,0.047
 44759,-0.02124820,0.02559266,0.17027557,0.00105638,-0.00040637,-0.0014
 2483,-0.00100568,-0.00488824,0.00303347,0.02742875,0.00194489,0.022990
 20,-0.00119162,0.00260611,-0.00111822,0.00132789,0.00090818,-0.0018745
 3,0.00043000,-0.00001258,0.00021769,0.00034816,-0.00025447,-0.00010586
 ,0.00004198,0.00010470,0.00122951,0.00001757,-0.00012014,0.00006069,0.
 00004453,0.00006852,0.00027062,0.00086683,-0.00074798,0.00083479,-0.00
 105507,-0.00038113,-0.00222634,-0.00240237,-0.00069070,0.00094482,0.00
 048213,-0.00157824,0.00326334,0.00146388,-0.00163790,-0.00229059,0.002
 79246,-0.00084779,-0.00156478,-0.00183580,0.00098284,-0.00004007,-0.00
 047338,-0.00002168,0.00068183,0.00137490,-0.00135093,0.00338403,-0.001
 38164,0.00122828,-0.00092374,0.00024352,0.00011525,-0.00126177,0.00029
 674,-0.00008274,-0.00030584,-0.00000571,-0.00000321,0.00003813,-0.0000
 4715,0.00002598,0.00005119,-0.00005968,-0.00000885,0.00003998,0.000095
 57,-0.00018620,0.00034389,-0.00000123,-0.00002183,-0.00005567,-0.00001
 059,0.00003627,-0.00007119,-0.00008730,0.00003399,-0.00012060,-0.00490
 628,-0.00581827,-0.00136678,0.00001059,0.00094383,-0.00006405,-0.00012
 168,0.00011014,-0.00019825,0.00005226,0.00013429,-0.00010584,-0.000047
 09,-0.00003941,0.00003258,-0.00004267,0.00006415,-0.00004818,-0.000178
 53,-0.00003399,0.00017765,-0.00001075,-0.00002652,-0.00008355,0.000096
 47,-0.00010684,0.00005837,-0.00012316,0.00016893,-0.00002953,0.0879904
 1,-0.19015937,0.17333937,-0.00762301,-0.00171584,0.05709155,-0.1037659
 5,0.20146417,-0.00126484,0.00114101,-0.00027179,0.00299636,-0.00058157
 ,-0.00040662,-0.01741974,0.02119788,-0.00481780,-0.00264754,-0.0012613
 9,0.00304613,0.00035188,0.00086033,0.00042596,-0.00019443,-0.00091572,
 -0.00011113,-0.00007411,-0.00000515,-0.00005865,-0.00000950,-0.0006300
 0,-0.00121500,-0.00035529,0.00006028,-0.00014197,-0.00008717,-0.000092
 09,0.00000442,-0.00080100,0.00020979,-0.00037357,0.00096280,-0.0019179
 1,0.00025901,0.00068512,0.00148908,-0.00002900,-0.00208801,0.00078676,
 -0.00412177,0.00115382,-0.00027085,-0.00020569,-0.00173679,0.00033783,
 0.00028516,0.00110864,-0.00050843,0.00020733,0.00039180,0.00005341,0.0
 0005707,-0.00005026,0.00073554,-0.00183719,0.00025537,-0.00059658,0.00
 046641,-0.00050419,-0.00022450,0.00079169,-0.00022021,-0.00000734,0.00
 021216,-0.00001196,-0.00001493,-0.00000693,-0.00001267,-0.00001571,-0.
 00002807,0.00005003,0.00003082,-0.00001263,-0.00001919,0.00017382,-0.0
 0003379,0.00001909,0.00003087,0.00003883,-0.00001938,-0.00005443,0.000
 02176,0.00010491,-0.00001496,0.00008222,0.00122453,-0.00040414,0.00329
 799,-0.00011979,-0.00064002,-0.00014350,0.00012839,-0.00012211,0.00020
 340,-0.00011139,-0.00022120,0.00033323,0.00007109,0.00007536,0.0000498
 0,-0.00000770,-0.00008992,0.00001092,0.00000762,-0.00000992,-0.0003060
 8,-0.00002261,-0.00009665,0.00010839,-0.00010650,0.00015614,0.00022189
 ,0.00010391,-0.00011041,0.00003852,-0.11596839,0.17547066,-0.32982287,
 0.00702362,0.05894260,-0.09101712,0.12716703,-0.25282856,0.42483972,0.
 00077546,0.00442585,0.00034931,-0.00225166,-0.00286741,-0.00019468,0.0
 0031564,0.00012672,-0.00008018,-0.00027916,0.00039102,-0.00013524,0.00
 043474,0.00026927,-0.00003003,0.00002772,-0.00044629,0.00050940,0.0002
 5132,0.00026963,-0.00030316,-0.00000248,0.00001230,-0.00006746,0.00001
 547,0.00000320,-0.00009590,-0.00002981,0.00002130,-0.00003595,-0.27083
 739,-0.07603875,-0.05589396,-0.02069319,0.00076597,0.00193365,-0.00488
 246,0.00324358,-0.00749212,-0.00026841,-0.00122524,0.00333544,0.000707
 43,-0.00115693,-0.00075466,-0.00174501,0.00118466,0.00112215,0.0002954
 0,-0.00048914,0.00275570,0.00012559,-0.00030694,-0.00017403,-0.0026936
 3,0.00185248,-0.00187235,0.00239900,-0.00062500,-0.00183333,0.00039069
 ,-0.00037085,-0.00020160,-0.00001201,-0.00002250,0.00001114,0.00001578
 ,-0.00000913,-0.00000193,0.00000863,0.00002101,-0.00003964,0.00002177,
 0.00001078,0.00001342,0.00005375,0.00000670,0.00007296,0.00002435,-0.0
 0001983,-0.00001739,0.00001506,0.00002145,0.00002168,-0.00002580,0.000
 01239,0.00003720,-0.00044681,-0.00003572,-0.00045693,0.00004407,-0.000
 03431,-0.00000667,-0.00015471,0.00001539,0.00012952,0.00003910,-0.0000
 2668,-0.00000322,-0.00003041,-0.00002483,0.00002377,0.00001235,0.00002
 714,-0.00002962,-0.00009515,0.00062265,-0.00033800,-0.00012108,0.00005
 856,0.00003220,0.00005605,-0.00005645,-0.00004433,-0.00008570,0.000140
 27,0.00009605,-0.00006332,0.00020304,-0.00000465,-0.00000065,-0.000071
 42,0.00006084,0.00014238,-0.00008466,0.00004666,0.29854706,-0.00270151
 ,-0.00057867,0.00032744,-0.03142543,-0.02247671,-0.00679904,0.00251923
 ,-0.00495617,-0.00062313,-0.00142478,-0.00029211,0.00070655,0.00003238
 ,0.00001821,-0.00017319,0.00020979,0.00020557,0.00005263,0.00147041,-0
 .00026236,-0.00028250,0.00007125,-0.00045813,0.00020490,0.00009186,0.0
 0003456,-0.00001699,0.00001338,0.00001296,-0.00001922,-0.07013828,-0.0
 6696628,-0.01869673,0.01530423,0.00318928,0.00104836,0.01360484,0.0033
 3340,0.00608130,0.00028006,0.00090712,-0.00243101,-0.00065165,0.000817
 95,0.00220889,0.00066152,0.00038948,-0.00044229,-0.00044642,-0.0003413
 9,-0.00013623,0.00011665,-0.00014793,0.00039146,-0.00002760,0.00058162
 ,0.00065036,-0.00007738,-0.00041855,-0.00026075,0.00040674,-0.00029526
 ,-0.00038031,0.00008219,-0.00000900,-0.00012146,0.00000378,-0.00000481
 ,0.00000281,-0.00002234,0.00000483,0.00000961,-0.00003982,0.00000369,0
 .00003017,0.00003469,-0.00000123,0.00018692,0.00001051,-0.00000697,-0.
 00000344,-0.00002416,0.00001513,-0.00004221,-0.00002294,0.00000442,-0.
 00002070,0.00086850,-0.00027832,0.00036278,0.00002367,0.00018504,0.000
 01260,0.00023468,-0.00060734,-0.00017283,-0.00005574,0.00002992,-0.000
 06446,0.00002786,-0.00004473,0.00008837,0.00005160,-0.00014378,0.00010
 724,0.00010948,-0.00062744,0.00023370,0.00009001,-0.00005326,-0.000069
 87,-0.00007546,0.00002053,0.00003164,0.00009079,-0.00014078,-0.0000647
 2,0.00113326,-0.00021265,-0.00024055,-0.00032732,0.00009147,0.00015900
 ,-0.00028922,0.00020067,-0.00011769,0.07020669,0.08927804,-0.00024012,
 0.00031430,0.00035319,-0.00042773,0.00040003,0.00107295,0.00001379,-0.
 00000095,0.00055662,0.00001908,0.00023314,0.00002740,0.00011531,-0.000
 00783,0.00004984,0.00009312,0.00001388,-0.00007337,0.00029463,-0.00051
 518,0.00037324,-0.00000695,0.00000343,-0.00007858,0.00001854,0.0000175
 1,0.00000659,-0.00000567,-0.00000190,-0.00001036,-0.05543742,-0.020224
 53,-0.06067327,0.02298631,0.00526377,0.00567935,-0.02903494,-0.0037492
 1,-0.01057940,0.00093470,0.00003574,-0.00470015,0.00184686,-0.00052719
 ,-0.00558748,-0.00386498,0.00086312,-0.00149412,0.00212699,-0.00014475
 ,0.00083725,0.00040222,-0.00016213,0.00127837,0.00354601,-0.00049990,-
 0.00038078,-0.00146776,0.00011878,-0.00113553,-0.00078620,0.00007878,0
 .00079799,0.00023024,0.00009322,-0.00012963,0.00000640,-0.00001338,0.0
 0006591,-0.00003813,-0.00002045,-0.00001447,0.00000040,0.00003101,-0.0
 0005145,-0.00009436,-0.00005818,-0.00014153,-0.00002581,0.00001023,0.0
 0004790,0.00002362,-0.00002641,-0.00004367,0.00003083,0.00002753,0.000
 01448,-0.00054867,-0.00002934,0.00188550,-0.00001858,-0.00000216,0.000
 08857,-0.00024709,0.00134759,0.00033196,-0.00002065,-0.00007554,0.0001
 5296,-0.00013623,0.00018553,-0.00022469,-0.00010436,0.00026712,-0.0002
 4498,-0.00006137,-0.00121412,0.00023378,0.00022552,-0.00019199,-0.0001
 5488,-0.00002194,0.00005572,0.00012710,0.00015860,-0.00020535,-0.00011
 926,0.00001880,-0.00000914,0.00002399,-0.00004335,0.00001153,-0.000002
 58,-0.00001559,0.00002507,-0.00004086,0.05955593,0.01828261,0.07187610
 \\0.00000230,-0.00000184,0.00000159,-0.00000430,0.00000959,0.00000230,
 0.00000665,-0.00000812,-0.00000302,-0.00000142,0.00000698,-0.00000476,
 0.00000273,-0.00000036,-0.00000043,0.00000122,-0.00000236,0.00000046,0
 .00000066,0.00000003,0.00000118,-0.00000118,-0.00000127,0.00000092,0.0
 0000035,0.00000102,0.00000058,0.00000042,0.00000060,-0.00000007,0.0000
 0138,-0.00000985,0.00000806,-0.00000365,0.00000228,-0.00000908,-0.0000
 1003,0.00000403,-0.00000030,0.00000027,-0.00000824,0.00000300,0.000010
 14,0.00000309,-0.00000345,0.00000443,-0.00001070,-0.00000014,0.0000000
 8,0.00000490,-0.00000397,0.00000658,0.00000220,-0.00000431,0.00000113,
 -0.00000626,-0.00000237,0.00000365,0.00000086,0.00000060,-0.00000517,0
 .00000438,0.00000958,-0.00000187,0.00000165,0.00000180,0.00000114,-0.0
 0000016,-0.00000035,0.00000022,0.00000020,0.00000020,-0.00000046,-0.00
 000016,-0.00000062,-0.00000232,-0.00000033,-0.00000274,0.00000025,-0.0
 0000026,0.00000054,0.00000005,0.00000013,0.00000052,0.,0.00000131,0.00
 000011,-0.00000983,-0.00000353,0.00000033,0.00000101,0.00000239,0.0000
 0059,-0.00000720,-0.00001012,-0.00000369,-0.00000059,0.00000439,0.0000
 0298,0.00000125,0.00000308,0.,0.00000083,-0.00000076,-0.00000003,-0.00
 000011,0.00000254,-0.00000094,0.00000108,-0.00000089,0.00000282,-0.000
 00063,0.00000136,0.00000063,0.00000035,-0.00000168,0.00000049,0.000003
 42,0.00001426,0.00000090,-0.00000469,-0.00000682,0.00001044,0.00000378
 ,0.00000143,-0.00000718,-0.00000193,0.00000102,-0.00000318\\\@


 Not by the face shall a man be known, but by the mask.
                               -- Karen Blixen
 Job cpu time:       2 days  6 hours 44 minutes 34.7 seconds.
 Elapsed time:       0 days  3 hours 54 minutes 38.3 seconds.
 File lengths (MBytes):  RWF=   2731 Int=      0 D2E=      0 Chk=     69 Scr=      1
 Normal termination of Gaussian 16 at Wed Jun  4 21:51:32 2025.
