 Entering Gaussian System, Link 0=g16
 Input=NitroBenzene_DFT_B3LYP_6311pp2d3p_Opt_Freq_Raman_NBO_Hirshfeld_Solvent_Nitromethane.gjf
 Output=NitroBenzene_DFT_B3LYP_6311pp2d3p_Opt_Freq_Raman_NBO_Hirshfeld_Solvent_Nitromethane.log
 Initial command:
 /opt/g16/l1.exe "/home/yarger/scratches/g16/Gau-1293668.inp" -scrdir="/home/yarger/scratches/g16/"
 Entering Link 1 = /opt/g16/l1.exe PID=   1293670.
  
 Copyright (c) 1988-2019, Gaussian, Inc.  All Rights Reserved.
  
 This is part of the Gaussian(R) 16 program.  It is based on
 the Gaussian(R) 09 system (copyright 2009, Gaussian, Inc.),
 the Gaussian(R) 03 system (copyright 2003, Gaussian, Inc.),
 the Gaussian(R) 98 system (copyright 1998, Gaussian, Inc.),
 the Gaussian(R) 94 system (copyright 1995, Gaussian, Inc.),
 the Gaussian 92(TM) system (copyright 1992, Gaussian, Inc.),
 the Gaussian 90(TM) system (copyright 1990, Gaussian, Inc.),
 the Gaussian 88(TM) system (copyright 1988, Gaussian, Inc.),
 the Gaussian 86(TM) system (copyright 1986, Carnegie Mellon
 University), and the Gaussian 82(TM) system (copyright 1983,
 Carnegie Mellon University). Gaussian is a federally registered
 trademark of Gaussian, Inc.
  
 This software contains proprietary and confidential information,
 including trade secrets, belonging to Gaussian, Inc.
  
 This software is provided under written license and may be
 used, copied, transmitted, or stored only in accord with that
 written license.
  
 The following legend is applicable only to US Government
 contracts under FAR:
  
                    RESTRICTED RIGHTS LEGEND
  
 Use, reproduction and disclosure by the US Government is
 subject to restrictions as set forth in subparagraphs (a)
 and (c) of the Commercial Computer Software - Restricted
 Rights clause in FAR 52.227-19.
  
 Gaussian, Inc.
 340 Quinnipiac St., Bldg. 40, Wallingford CT 06492
  
  
 ---------------------------------------------------------------
 Warning -- This program may not be used in any manner that
 competes with the business of Gaussian, Inc. or will provide
 assistance to any competitor of Gaussian, Inc.  The licensee
 of this program is prohibited from giving any competitor of
 Gaussian, Inc. access to this program.  By using this program,
 the user acknowledges that Gaussian, Inc. is engaged in the
 business of creating and licensing software in the field of
 computational chemistry and represents and warrants to the
 licensee that it is not a competitor of Gaussian, Inc. and that
 it will not use this program in any manner prohibited above.
 ---------------------------------------------------------------
  

 Cite this work as:
 Gaussian 16, Revision C.01,
 M. J. Frisch, G. W. Trucks, H. B. Schlegel, G. E. Scuseria, 
 M. A. Robb, J. R. Cheeseman, G. Scalmani, V. Barone, 
 G. A. Petersson, H. Nakatsuji, X. Li, M. Caricato, A. V. Marenich, 
 J. Bloino, B. G. Janesko, R. Gomperts, B. Mennucci, H. P. Hratchian, 
 J. V. Ortiz, A. F. Izmaylov, J. L. Sonnenberg, D. Williams-Young, 
 F. Ding, F. Lipparini, F. Egidi, J. Goings, B. Peng, A. Petrone, 
 T. Henderson, D. Ranasinghe, V. G. Zakrzewski, J. Gao, N. Rega, 
 G. Zheng, W. Liang, M. Hada, M. Ehara, K. Toyota, R. Fukuda, 
 J. Hasegawa, M. Ishida, T. Nakajima, Y. Honda, O. Kitao, H. Nakai, 
 T. Vreven, K. Throssell, J. A. Montgomery, Jr., J. E. Peralta, 
 F. Ogliaro, M. J. Bearpark, J. J. Heyd, E. N. Brothers, K. N. Kudin, 
 V. N. Staroverov, T. A. Keith, R. Kobayashi, J. Normand, 
 K. Raghavachari, A. P. Rendell, J. C. Burant, S. S. Iyengar, 
 J. Tomasi, M. Cossi, J. M. Millam, M. Klene, C. Adamo, R. Cammi, 
 J. W. Ochterski, R. L. Martin, K. Morokuma, O. Farkas, 
 J. B. Foresman, and D. J. Fox, Gaussian, Inc., Wallingford CT, 2019.
 
 ******************************************
 Gaussian 16:  ES64L-G16RevC.01  3-Jul-2019
                 9-Dec-2025 
 ******************************************
 %nprocshared=12
 Will use up to   12 processors via shared memory.
 %mem=12GB
 %chk=NitroBenzene_DFT_B3LYP_6311pp2d3p_Opt_Freq_Raman_NBO_Hirshfeld_Solvent_Nitr
 omethane.chk
 ----------------------------------------------------------------------
 #p opt freq=(raman,savenormalmodes) b3lyp/6-311++g(2d,3p) scrf=(solven
 t=nitromethane) guess=save pop=(hirshfeld,nbo,savenbos,savecm5) geom=c
 onnectivity polar
 ----------------------------------------------------------------------
 1/18=20,19=15,26=3,38=1,57=2/1,3;
 2/9=110,12=2,17=6,18=5,40=1/2;
 3/5=4,6=6,7=1512,11=2,25=1,30=1,70=2201,71=1,72=15,74=-5/1,2,3;
 4//1;
 5/5=2,38=5,53=15,98=1/2;
 6/7=2,8=2,9=2,10=2,28=1,40=1,73=1,79=1/1,7;
 7/92=1/1,2,3,16;
 1/18=20,19=15,26=3/3(2);
 2/9=110/2;
 99/20=8/99;
 2/9=110/2;
 3/5=4,6=6,7=1512,11=2,25=1,30=1,70=2205,71=1,72=15,74=-5/1,2,3;
 4/5=5,16=3,69=1/1;
 5/5=2,38=5,53=15,98=1/2;
 7/92=1/1,2,3,16;
 1/18=20,19=15,26=3/3(-5);
 2/9=110/2;
 6/7=2,8=2,9=2,10=2,19=2,28=1,40=1,73=1,79=1/1,7;
 99/9=1,20=8/99;
 Leave Link    1 at Tue Dec  9 19:53:46 2025, MaxMem=  1610612736 cpu:               0.8 elap:               0.1
 (Enter /opt/g16/l101.exe)
 ------------
 NitroBenzene
 ------------
 Symbolic Z-matrix:
 Charge =  0 Multiplicity = 1
 C                    -1.20109  0.        -1.8547 
 C                    -1.21203  0.        -0.45334 
 C                    -0.0039    0.        0.25682 
 C                     1.21519   0.       -0.43438 
 C                     1.22613  0.        -1.83574 
 C                     0.018    0.        -2.5459 
 H                    -2.12353  -0.00001  -2.39692 
 H                     2.13763   0.00001   0.10784 
 H                     2.15693  0.        -2.36349 
 H                     0.02635  0.        -3.61587 
 N                    -0.01538   0.        1.72677 
 O                     1.05155   0.00001   2.35392 
 O                    -1.09197   0.        2.33718 
 H                    -2.14283  0.         0.0744 
 
 ITRead=  0  0  0  0  0  0  0  0  0  0  0  0  0  0
 MicOpt= -1 -1 -1 -1 -1 -1 -1 -1 -1 -1 -1 -1 -1 -1
 NAtoms=     14 NQM=       14 NQMF=       0 NMMI=      0 NMMIF=      0
                NMic=       0 NMicF=      0.
                    Isotopes and Nuclear Properties:
 (Nuclear quadrupole moments (NQMom) in fm**2, nuclear magnetic moments (NMagM)
  in nuclear magnetons)

  Atom         1           2           3           4           5           6           7           8           9          10
 IAtWgt=          12          12          12          12          12          12           1           1           1           1
 AtmWgt=  12.0000000  12.0000000  12.0000000  12.0000000  12.0000000  12.0000000   1.0078250   1.0078250   1.0078250   1.0078250
 NucSpn=           0           0           0           0           0           0           1           1           1           1
 AtZEff=  -0.0000000  -0.0000000  -0.0000000  -0.0000000  -0.0000000  -0.0000000  -0.0000000  -0.0000000  -0.0000000  -0.0000000
 NQMom=    0.0000000   0.0000000   0.0000000   0.0000000   0.0000000   0.0000000   0.0000000   0.0000000   0.0000000   0.0000000
 NMagM=    0.0000000   0.0000000   0.0000000   0.0000000   0.0000000   0.0000000   2.7928460   2.7928460   2.7928460   2.7928460
 AtZNuc=   6.0000000   6.0000000   6.0000000   6.0000000   6.0000000   6.0000000   1.0000000   1.0000000   1.0000000   1.0000000

  Atom        11          12          13          14
 IAtWgt=          14          16          16           1
 AtmWgt=  14.0030740  15.9949146  15.9949146   1.0078250
 NucSpn=           2           0           0           1
 AtZEff=  -0.0000000  -0.0000000  -0.0000000  -0.0000000
 NQMom=    2.0440000   0.0000000   0.0000000   0.0000000
 NMagM=    0.4037610   0.0000000   0.0000000   2.7928460
 AtZNuc=   7.0000000   8.0000000   8.0000000   1.0000000
 Leave Link  101 at Tue Dec  9 19:53:49 2025, MaxMem=  1610612736 cpu:              30.9 elap:               2.6
 (Enter /opt/g16/l103.exe)

 GradGradGradGradGradGradGradGradGradGradGradGradGradGradGradGradGradGrad
 Berny optimization.
 Initialization pass.
                           ----------------------------
                           !    Initial Parameters    !
                           ! (Angstroms and Degrees)  !
 --------------------------                            --------------------------
 ! Name  Definition              Value          Derivative Info.                !
 --------------------------------------------------------------------------------
 ! R1    R(1,2)                  1.4014         estimate D2E/DX2                !
 ! R2    R(1,6)                  1.4014         estimate D2E/DX2                !
 ! R3    R(1,7)                  1.07           estimate D2E/DX2                !
 ! R4    R(2,3)                  1.4014         estimate D2E/DX2                !
 ! R5    R(2,14)                 1.07           estimate D2E/DX2                !
 ! R6    R(3,4)                  1.4014         estimate D2E/DX2                !
 ! R7    R(3,11)                 1.47           estimate D2E/DX2                !
 ! R8    R(4,5)                  1.4014         estimate D2E/DX2                !
 ! R9    R(4,8)                  1.07           estimate D2E/DX2                !
 ! R10   R(5,6)                  1.4014         estimate D2E/DX2                !
 ! R11   R(5,9)                  1.07           estimate D2E/DX2                !
 ! R12   R(6,10)                 1.07           estimate D2E/DX2                !
 ! R13   R(11,12)                1.2376         estimate D2E/DX2                !
 ! R14   R(11,13)                1.2376         estimate D2E/DX2                !
 ! A1    A(2,1,6)              120.0            estimate D2E/DX2                !
 ! A2    A(2,1,7)              120.0            estimate D2E/DX2                !
 ! A3    A(6,1,7)              120.0            estimate D2E/DX2                !
 ! A4    A(1,2,3)              120.0            estimate D2E/DX2                !
 ! A5    A(1,2,14)             120.0            estimate D2E/DX2                !
 ! A6    A(3,2,14)             120.0            estimate D2E/DX2                !
 ! A7    A(2,3,4)              120.0            estimate D2E/DX2                !
 ! A8    A(2,3,11)             120.0            estimate D2E/DX2                !
 ! A9    A(4,3,11)             120.0            estimate D2E/DX2                !
 ! A10   A(3,4,5)              120.0            estimate D2E/DX2                !
 ! A11   A(3,4,8)              120.0            estimate D2E/DX2                !
 ! A12   A(5,4,8)              120.0            estimate D2E/DX2                !
 ! A13   A(4,5,6)              120.0            estimate D2E/DX2                !
 ! A14   A(4,5,9)              120.0            estimate D2E/DX2                !
 ! A15   A(6,5,9)              120.0            estimate D2E/DX2                !
 ! A16   A(1,6,5)              120.0            estimate D2E/DX2                !
 ! A17   A(1,6,10)             120.0            estimate D2E/DX2                !
 ! A18   A(5,6,10)             120.0            estimate D2E/DX2                !
 ! A19   A(3,11,12)            120.0            estimate D2E/DX2                !
 ! A20   A(3,11,13)            120.0            estimate D2E/DX2                !
 ! A21   A(12,11,13)           120.0            estimate D2E/DX2                !
 ! D1    D(6,1,2,3)             -0.0002         estimate D2E/DX2                !
 ! D2    D(6,1,2,14)           179.9999         estimate D2E/DX2                !
 ! D3    D(7,1,2,3)            180.0            estimate D2E/DX2                !
 ! D4    D(7,1,2,14)             0.0            estimate D2E/DX2                !
 ! D5    D(2,1,6,5)              0.0001         estimate D2E/DX2                !
 ! D6    D(2,1,6,10)          -179.9998         estimate D2E/DX2                !
 ! D7    D(7,1,6,5)           -180.0            estimate D2E/DX2                !
 ! D8    D(7,1,6,10)             0.0001         estimate D2E/DX2                !
 ! D9    D(1,2,3,4)              0.0002         estimate D2E/DX2                !
 ! D10   D(1,2,3,11)          -180.0            estimate D2E/DX2                !
 ! D11   D(14,2,3,4)          -179.9999         estimate D2E/DX2                !
 ! D12   D(14,2,3,11)            0.0            estimate D2E/DX2                !
 ! D13   D(2,3,4,5)             -0.0001         estimate D2E/DX2                !
 ! D14   D(2,3,4,8)            179.9998         estimate D2E/DX2                !
 ! D15   D(11,3,4,5)           180.0            estimate D2E/DX2                !
 ! D16   D(11,3,4,8)             0.0            estimate D2E/DX2                !
 ! D17   D(2,3,11,12)         -179.9999         estimate D2E/DX2                !
 ! D18   D(2,3,11,13)            0.0            estimate D2E/DX2                !
 ! D19   D(4,3,11,12)            0.0            estimate D2E/DX2                !
 ! D20   D(4,3,11,13)          179.9999         estimate D2E/DX2                !
 ! D21   D(3,4,5,6)              0.0001         estimate D2E/DX2                !
 ! D22   D(3,4,5,9)           -180.0            estimate D2E/DX2                !
 ! D23   D(8,4,5,6)           -179.9999         estimate D2E/DX2                !
 ! D24   D(8,4,5,9)              0.0001         estimate D2E/DX2                !
 ! D25   D(4,5,6,1)             -0.0001         estimate D2E/DX2                !
 ! D26   D(4,5,6,10)           179.9998         estimate D2E/DX2                !
 ! D27   D(9,5,6,1)            179.9999         estimate D2E/DX2                !
 ! D28   D(9,5,6,10)            -0.0001         estimate D2E/DX2                !
 --------------------------------------------------------------------------------
 Trust Radius=3.00D-01 FncErr=1.00D-07 GrdErr=1.00D-06 EigMax=2.50D+02 EigMin=1.00D-04
 Number of steps in this run=     73 maximum allowed number of steps=    100.
 GradGradGradGradGradGradGradGradGradGradGradGradGradGradGradGradGradGrad

 Leave Link  103 at Tue Dec  9 19:53:49 2025, MaxMem=  1610612736 cpu:               0.1 elap:               0.0
 (Enter /opt/g16/l202.exe)
                          Input orientation:                          
 ---------------------------------------------------------------------
 Center     Atomic      Atomic             Coordinates (Angstroms)
 Number     Number       Type             X           Y           Z
 ---------------------------------------------------------------------
      1          6           0       -1.201088   -0.000004   -1.854700
      2          6           0       -1.212034   -0.000001   -0.453343
      3          6           0       -0.003896    0.000001    0.256815
      4          6           0        1.215188    0.000002   -0.434384
      5          6           0        1.226134   -0.000001   -1.835741
      6          6           0        0.017996   -0.000003   -2.545899
      7          1           0       -2.123528   -0.000006   -2.396922
      8          1           0        2.137628    0.000005    0.107837
      9          1           0        2.156932   -0.000001   -2.363487
     10          1           0        0.026354   -0.000002   -3.615867
     11          7           0       -0.015378    0.000003    1.726770
     12          8           0        1.051549    0.000006    2.353923
     13          8           0       -1.091971    0.000004    2.337180
     14          1           0       -2.142832   -0.000000    0.074403
 ---------------------------------------------------------------------
                    Distance matrix (angstroms):
                    1          2          3          4          5
     1  C    0.000000
     2  C    1.401400   0.000000
     3  C    2.427296   1.401400   0.000000
     4  C    2.802800   2.427296   1.401400   0.000000
     5  C    2.427296   2.802800   2.427296   1.401400   0.000000
     6  C    1.401400   2.427296   2.802800   2.427296   1.401400
     7  H    1.070000   2.146700   3.396345   3.872800   3.396345
     8  H    3.872800   3.396345   2.146700   1.070000   2.146700
     9  H    3.396345   3.872800   3.396345   2.146700   1.070000
    10  H    2.146700   3.396345   3.872800   3.396345   2.146700
    11  N    3.772644   2.486942   1.470000   2.486942   3.772644
    12  O    4.773561   3.606182   2.347728   2.793105   4.193300
    13  O    4.193300   2.793105   2.347728   3.606182   4.773561
    14  H    2.146700   1.070000   2.146700   3.396345   3.872800
                    6          7          8          9         10
     6  C    0.000000
     7  H    2.146700   0.000000
     8  H    3.396345   4.942800   0.000000
     9  H    2.146700   4.280590   2.471400   0.000000
    10  H    1.070000   2.471400   4.280590   2.471400   0.000000
    11  N    4.272800   4.631321   2.693767   4.631321   5.342800
    12  O    5.007643   5.714161   2.494888   4.845186   6.057179
    13  O    5.007643   4.845186   3.924319   5.714161   6.057179
    14  H    3.396345   2.471400   4.280590   4.942800   4.280590
                   11         12         13         14
    11  N    0.000000
    12  O    1.237600   0.000000
    13  O    1.237600   2.143586   0.000000
    14  H    2.693766   3.924319   2.494888   0.000000
 Stoichiometry    C6H5NO2
 Framework group  CS[SG(C2HN),X(C4H4O2)]
 Deg. of freedom    20
 Full point group                 CS      NOp   2
 Largest Abelian subgroup         CS      NOp   2
 Largest concise Abelian subgroup CS      NOp   2
                         Standard orientation:                         
 ---------------------------------------------------------------------
 Center     Atomic      Atomic             Coordinates (Angstroms)
 Number     Number       Type             X           Y           Z
 ---------------------------------------------------------------------
      1          6           0       -0.000001   -1.848694   -1.213648
      2          6           0        0.000000   -0.447294   -1.213648
      3          6           0       -0.000001    0.253406    0.000000
      4          6           0        0.000000   -0.447294    1.213648
      5          6           0       -0.000001   -1.848694    1.213648
      6          6           0        0.000001   -2.549394   -0.000000
      7          1           0       -0.000000   -2.383694   -2.140295
      8          1           0        0.000002    0.087706    2.140295
      9          1           0       -0.000000   -2.383694    2.140295
     10          1           0        0.000003   -3.619394   -0.000000
     11          7           0       -0.000001    1.723406    0.000000
     12          8           0       -0.000000    2.342206    1.071793
     13          8           0       -0.000000    2.342206   -1.071793
     14          1           0        0.000002    0.087706   -2.140295
 ---------------------------------------------------------------------
 Rotational constants (GHZ):           4.0136192           1.2423034           0.9486694
 Leave Link  202 at Tue Dec  9 19:53:49 2025, MaxMem=  1610612736 cpu:               0.0 elap:               0.0
 (Enter /opt/g16/l301.exe)
 Standard basis: 6-311++G(2d,3p) (5D, 7F)
 Ernie: Thresh=  0.10000D-02 Tol=  0.10000D-05 Strict=F.
 There are   186 symmetry adapted cartesian basis functions of A'  symmetry.
 There are   140 symmetry adapted cartesian basis functions of A"  symmetry.
 There are   174 symmetry adapted basis functions of A'  symmetry.
 There are   134 symmetry adapted basis functions of A"  symmetry.
   308 basis functions,   453 primitive gaussians,   326 cartesian basis functions
    32 alpha electrons       32 beta electrons
       nuclear repulsion energy       409.3864397825 Hartrees.
 IExCor=  402 DFT=T Ex+Corr=B3LYP ExCW=0 ScaHFX=  0.200000
 ScaDFX=  0.800000  0.720000  1.000000  0.810000 ScalE2=  1.000000  1.000000
 IRadAn=      5 IRanWt=     -1 IRanGd=            0 ICorTp=0 IEmpDi=  4
 NAtoms=   14 NActive=   14 NUniq=    9 SFac= 2.42D+00 NAtFMM=   60 NAOKFM=F Big=F
 Integral buffers will be    131072 words long.
 Raffenetti 2 integral format.
 Two-electron integral symmetry is turned on.
 ------------------------------------------------------------------------------
 Polarizable Continuum Model (PCM)
 =================================
 Model                : PCM.
 Atomic radii         : UFF (Universal Force Field).
 Polarization charges : Total charges.
 Charge compensation  : None.
 Solution method      : On-the-fly selection.
 Cavity type          : Scaled VdW (van der Waals Surface) (Alpha=1.100).
 Cavity algorithm     : GePol (No added spheres)
                        Default sphere list used, NSphG=   14.
                        Lebedev-Laikov grids with approx.  5.0 points / Ang**2.
                        Smoothing algorithm: York/Karplus (Gamma=1.0000).
                        Polarization charges: spherical gaussians, with
                                              point-specific exponents (IZeta= 3).
                        Self-potential: point-specific (ISelfS= 7).
                        Self-field    : sphere-specific E.n sum rule (ISelfD= 2).
 1st derivatives      : Analytical E(r).r(x)/FMM algorithm (CHGder, D1EAlg=3).
                        Cavity 1st derivative terms included.
 Solvent              : NitroMethane, Eps=  36.562000 Eps(inf)=   1.909095
 ------------------------------------------------------------------------------
 Spheres list:
 ISph  on   Nord     Re0    Alpha      Xe            Ye            Ze
    1   C      1    1.9255  1.100     -0.000001     -1.848694     -1.213648
    2   C      2    1.9255  1.100      0.000000     -0.447294     -1.213648
    3   C      3    1.9255  1.100     -0.000001      0.253406      0.000000
    4   C      4    1.9255  1.100      0.000000     -0.447294      1.213648
    5   C      5    1.9255  1.100     -0.000001     -1.848694      1.213648
    6   C      6    1.9255  1.100      0.000001     -2.549394     -0.000000
    7   H      7    1.4430  1.100     -0.000000     -2.383694     -2.140295
    8   H      8    1.4430  1.100      0.000002      0.087706      2.140295
    9   H      9    1.4430  1.100     -0.000000     -2.383694      2.140295
   10   H     10    1.4430  1.100      0.000003     -3.619394     -0.000000
   11   N     11    1.8300  1.100     -0.000001      1.723406      0.000000
   12   O     12    1.7500  1.100     -0.000000      2.342206      1.071793
   13   O     13    1.7500  1.100     -0.000000      2.342206     -1.071793
   14   H     14    1.4430  1.100      0.000002      0.087706     -2.140295
 ------------------------------------------------------------------------------
 GePol: Number of generator spheres                  =      14
 GePol: Total number of spheres                      =      14
 GePol: Number of exposed spheres                    =      14 (100.00%)
 GePol: Number of points                             =    1319
 GePol: Average weight of points                     =       0.13
 GePol: Minimum weight of points                     =   0.12D-05
 GePol: Maximum weight of points                     =    0.20577
 GePol: Number of points with low weight             =      64
 GePol: Fraction of low-weight points (<1% of avg)   =       4.85%
 GePol: Cavity surface area                          =    173.956 Ang**2
 GePol: Cavity volume                                =    169.839 Ang**3
 Leave Link  301 at Tue Dec  9 19:53:49 2025, MaxMem=  1610612736 cpu:               0.6 elap:               0.1
 (Enter /opt/g16/l302.exe)
 NPDir=0 NMtPBC=     1 NCelOv=     1 NCel=       1 NClECP=     1 NCelD=      1
         NCelK=      1 NCelE2=     1 NClLst=     1 CellRange=     0.0.
 One-electron integrals computed using PRISM.
 One-electron integral symmetry used in STVInt
 NBasis=   308 RedAO= T EigKep=  1.08D-06  NBF=   174   134
 NBsUse=   308 1.00D-06 EigRej= -1.00D+00 NBFU=   174   134
 Precomputing XC quadrature grid using
 IXCGrd= 4 IRadAn=           5 IRanWt=          -1 IRanGd=           0 AccXCQ= 0.00D+00.
 Generated NRdTot=       0 NPtTot=           0 NUsed=           0 NTot=          32
 NSgBfM=   326   326   326   326   326 MxSgAt=    14 MxSgA2=    14.
 Leave Link  302 at Tue Dec  9 19:53:49 2025, MaxMem=  1610612736 cpu:               2.4 elap:               0.2
 (Enter /opt/g16/l303.exe)
 DipDrv:  MaxL=1.
 Leave Link  303 at Tue Dec  9 19:53:49 2025, MaxMem=  1610612736 cpu:               0.8 elap:               0.1
 (Enter /opt/g16/l401.exe)
 ExpMin= 3.60D-02 ExpMax= 8.59D+03 ExpMxC= 1.30D+03 IAcc=3 IRadAn=         5 AccDes= 0.00D+00
 Harris functional with IExCor=  402 and IRadAn=       5 diagonalized for initial guess.
 HarFok:  IExCor=  402 AccDes= 0.00D+00 IRadAn=         5 IDoV= 1 UseB2=F ITyADJ=14
 ICtDFT=  3500011 ScaDFX=  1.000000  1.000000  1.000000  1.000000
 FoFCou: FMM=F IPFlag=           0 FMFlag=      100000 FMFlg1=           0
         NFxFlg=           0 DoJE=T BraDBF=F KetDBF=T FulRan=T
         wScrn=  0.000000 ICntrl=       500 IOpCl=  0 I1Cent=   200000004 NGrid=           0
         NMat0=    1 NMatS0=      1 NMatT0=    0 NMatD0=    1 NMtDS0=    0 NMtDT0=    0
 Petite list used in FoFCou.
 Harris En= -436.935836178744    
 JPrj=0 DoOrth=F DoCkMO=F.
 Initial guess orbital symmetries:
       Occupied  (A") (A') (A') (A') (A") (A') (A") (A') (A') (A')
                 (A") (A') (A') (A") (A') (A") (A') (A') (A") (A')
                 (A') (A") (A") (A') (A') (A") (A') (A") (A') (A")
                 (A') (A")
       Virtual   (A') (A") (A') (A') (A") (A') (A') (A') (A") (A')
                 (A') (A') (A') (A") (A') (A") (A') (A") (A') (A')
                 (A") (A") (A") (A") (A') (A') (A') (A") (A') (A')
                 (A") (A') (A') (A') (A') (A") (A') (A") (A') (A")
                 (A") (A') (A") (A') (A') (A") (A') (A") (A') (A")
                 (A') (A") (A') (A') (A') (A") (A") (A") (A') (A')
                 (A') (A') (A") (A') (A") (A") (A') (A") (A') (A')
                 (A") (A') (A') (A") (A") (A") (A') (A') (A") (A')
                 (A') (A") (A') (A") (A') (A') (A") (A') (A") (A")
                 (A') (A') (A') (A') (A") (A") (A') (A') (A") (A')
                 (A') (A") (A") (A') (A") (A') (A') (A') (A") (A')
                 (A') (A") (A") (A') (A") (A') (A') (A") (A") (A')
                 (A") (A') (A') (A") (A') (A') (A") (A") (A') (A')
                 (A") (A") (A') (A') (A") (A") (A") (A') (A") (A")
                 (A') (A') (A') (A") (A') (A") (A') (A') (A") (A')
                 (A") (A') (A") (A") (A') (A') (A") (A') (A") (A')
                 (A") (A') (A') (A') (A") (A") (A') (A') (A") (A')
                 (A') (A') (A') (A") (A") (A') (A') (A") (A") (A')
                 (A") (A") (A') (A") (A") (A') (A") (A') (A') (A')
                 (A") (A') (A") (A') (A') (A") (A") (A') (A") (A')
                 (A') (A') (A") (A') (A") (A") (A') (A') (A") (A')
                 (A") (A") (A') (A') (A") (A') (A') (A") (A') (A')
                 (A") (A") (A') (A') (A") (A") (A') (A') (A') (A")
                 (A") (A') (A") (A') (A") (A') (A') (A") (A") (A')
                 (A') (A") (A") (A') (A') (A") (A") (A') (A") (A')
                 (A') (A") (A') (A") (A') (A") (A") (A') (A') (A')
                 (A") (A') (A") (A') (A") (A") (A') (A') (A") (A')
                 (A') (A') (A") (A') (A') (A")
 The electronic state of the initial guess is 1-A'.
 Leave Link  401 at Tue Dec  9 19:53:50 2025, MaxMem=  1610612736 cpu:              10.7 elap:               0.9
 (Enter /opt/g16/l502.exe)
 Integral symmetry usage will be decided dynamically.
 Closed shell SCF:
 Using DIIS extrapolation, IDIIS=  1040.
 NGot=  1610612736 LenX=  1610392280 LenY=  1610285563
 Requested convergence on RMS density matrix=1.00D-08 within 128 cycles.
 Requested convergence on MAX density matrix=1.00D-06.
 Requested convergence on             energy=1.00D-06.
 No special actions if energy rises.
 Fock matrices will be formed incrementally for  20 cycles.

 Cycle   1  Pass 1  IDiag  1:
 FoFJK:  IHMeth= 1 ICntrl=       0 DoSepK=F KAlg= 0 I1Cent=           0 FoldK=F
 IRaf= 940000000 NMat=       1 IRICut=       1 DoRegI=T DoRafI=F ISym2E= 1 IDoP0=0 IntGTp=1.
 FoFCou: FMM=F IPFlag=           0 FMFlag=      100000 FMFlg1=           0
         NFxFlg=           0 DoJE=F BraDBF=F KetDBF=F FulRan=T
         wScrn=  0.000000 ICntrl=         0 IOpCl=  0 I1Cent=           0 NGrid=           0
         NMat0=    1 NMatS0=      1 NMatT0=    0 NMatD0=    1 NMtDS0=    0 NMtDT0=    0
 Petite list used in FoFCou.
 Inv3:  Mode=1 IEnd=     5219283.
 Iteration    1 A*A^-1 deviation from unit magnitude is 3.33D-15 for    730.
 Iteration    1 A*A^-1 deviation from orthogonality  is 2.28D-15 for    951    224.
 Iteration    1 A^-1*A deviation from unit magnitude is 3.33D-15 for    730.
 Iteration    1 A^-1*A deviation from orthogonality  is 2.70D-15 for    798    344.
 E= -436.604592632394    
 DIIS: error= 4.03D-02 at cycle   1 NSaved=   1.
 NSaved= 1 IEnMin= 1 EnMin= -436.604592632394     IErMin= 1 ErrMin= 4.03D-02
 ErrMax= 4.03D-02  0.00D+00 EMaxC= 1.00D-01 BMatC= 3.75D-01 BMatP= 3.75D-01
 IDIUse=3 WtCom= 5.97D-01 WtEn= 4.03D-01
 Coeff-Com:  0.100D+01
 Coeff-En:   0.100D+01
 Coeff:      0.100D+01
 Gap=     0.137 Goal=   None    Shift=    0.000
 GapD=    0.137 DampG=1.000 DampE=0.500 DampFc=0.5000 IDamp=-1.
 Damping current iteration by 5.00D-01
 RMSDP=7.00D-03 MaxDP=2.32D-01              OVMax= 3.65D-01

 Cycle   2  Pass 1  IDiag  1:
 RMSU=  3.44D-03    CP:  9.71D-01
 E= -436.660659956084     Delta-E=       -0.056067323690 Rises=F Damp=T
 DIIS: error= 1.92D-02 at cycle   2 NSaved=   2.
 NSaved= 2 IEnMin= 2 EnMin= -436.660659956084     IErMin= 2 ErrMin= 1.92D-02
 ErrMax= 1.92D-02  0.00D+00 EMaxC= 1.00D-01 BMatC= 7.59D-02 BMatP= 3.75D-01
 IDIUse=3 WtCom= 8.08D-01 WtEn= 1.92D-01
 Coeff-Com:  0.266D+00 0.734D+00
 Coeff-En:   0.409D+00 0.591D+00
 Coeff:      0.294D+00 0.706D+00
 Gap=     0.148 Goal=   None    Shift=    0.000
 RMSDP=2.66D-03 MaxDP=1.62D-01 DE=-5.61D-02 OVMax= 2.53D-01

 Cycle   3  Pass 1  IDiag  1:
 RMSU=  2.62D-03    CP:  9.56D-01  1.10D+00
 E= -436.883012577989     Delta-E=       -0.222352621904 Rises=F Damp=F
 DIIS: error= 6.49D-03 at cycle   3 NSaved=   3.
 NSaved= 3 IEnMin= 3 EnMin= -436.883012577989     IErMin= 3 ErrMin= 6.49D-03
 ErrMax= 6.49D-03  0.00D+00 EMaxC= 1.00D-01 BMatC= 1.18D-02 BMatP= 7.59D-02
 IDIUse=3 WtCom= 9.35D-01 WtEn= 6.49D-02
 Coeff-Com:  0.727D-01 0.282D+00 0.646D+00
 Coeff-En:   0.000D+00 0.000D+00 0.100D+01
 Coeff:      0.680D-01 0.263D+00 0.669D+00
 Gap=     0.171 Goal=   None    Shift=    0.000
 RMSDP=1.45D-03 MaxDP=9.62D-02 DE=-2.22D-01 OVMax= 4.09D-02

 Cycle   4  Pass 1  IDiag  1:
 RMSU=  9.80D-04    CP:  9.15D-01  1.02D+00  7.97D-01
 E= -436.891078612684     Delta-E=       -0.008066034696 Rises=F Damp=F
 DIIS: error= 3.87D-03 at cycle   4 NSaved=   4.
 NSaved= 4 IEnMin= 4 EnMin= -436.891078612684     IErMin= 4 ErrMin= 3.87D-03
 ErrMax= 3.87D-03  0.00D+00 EMaxC= 1.00D-01 BMatC= 3.38D-03 BMatP= 1.18D-02
 IDIUse=3 WtCom= 9.61D-01 WtEn= 3.87D-02
 Coeff-Com:  0.191D-01 0.637D-01 0.366D+00 0.551D+00
 Coeff-En:   0.000D+00 0.000D+00 0.231D+00 0.769D+00
 Coeff:      0.184D-01 0.612D-01 0.361D+00 0.560D+00
 Gap=     0.164 Goal=   None    Shift=    0.000
 RMSDP=3.61D-04 MaxDP=1.64D-02 DE=-8.07D-03 OVMax= 2.06D-02

 Cycle   5  Pass 1  IDiag  1:
 RMSU=  2.61D-04    CP:  9.15D-01  9.92D-01  7.75D-01  7.68D-01
 E= -436.894267095764     Delta-E=       -0.003188483079 Rises=F Damp=F
 DIIS: error= 9.95D-04 at cycle   5 NSaved=   5.
 NSaved= 5 IEnMin= 5 EnMin= -436.894267095764     IErMin= 5 ErrMin= 9.95D-04
 ErrMax= 9.95D-04  0.00D+00 EMaxC= 1.00D-01 BMatC= 2.48D-04 BMatP= 3.38D-03
 IDIUse=3 WtCom= 9.90D-01 WtEn= 9.95D-03
 Coeff-Com:  0.229D-02 0.463D-02 0.132D+00 0.293D+00 0.568D+00
 Coeff-En:   0.000D+00 0.000D+00 0.000D+00 0.000D+00 0.100D+01
 Coeff:      0.227D-02 0.459D-02 0.130D+00 0.290D+00 0.573D+00
 Gap=     0.167 Goal=   None    Shift=    0.000
 RMSDP=1.23D-04 MaxDP=7.68D-03 DE=-3.19D-03 OVMax= 5.54D-03

 Cycle   6  Pass 1  IDiag  1:
 RMSU=  8.56D-05    CP:  9.12D-01  9.89D-01  7.87D-01  8.21D-01  8.46D-01
 E= -436.894474665877     Delta-E=       -0.000207570113 Rises=F Damp=F
 DIIS: error= 3.01D-04 at cycle   6 NSaved=   6.
 NSaved= 6 IEnMin= 6 EnMin= -436.894474665877     IErMin= 6 ErrMin= 3.01D-04
 ErrMax= 3.01D-04  0.00D+00 EMaxC= 1.00D-01 BMatC= 1.56D-05 BMatP= 2.48D-04
 IDIUse=3 WtCom= 9.97D-01 WtEn= 3.01D-03
 Coeff-Com:  0.138D-03-0.116D-02 0.417D-01 0.109D+00 0.289D+00 0.562D+00
 Coeff-En:   0.000D+00 0.000D+00 0.000D+00 0.000D+00 0.000D+00 0.100D+01
 Coeff:      0.138D-03-0.115D-02 0.416D-01 0.108D+00 0.288D+00 0.564D+00
 Gap=     0.167 Goal=   None    Shift=    0.000
 RMSDP=4.11D-05 MaxDP=2.57D-03 DE=-2.08D-04 OVMax= 1.72D-03

 Cycle   7  Pass 1  IDiag  1:
 RMSU=  2.35D-05    CP:  9.13D-01  9.92D-01  7.89D-01  8.05D-01  8.41D-01
                    CP:  7.61D-01
 E= -436.894488498277     Delta-E=       -0.000013832400 Rises=F Damp=F
 DIIS: error= 8.56D-05 at cycle   7 NSaved=   7.
 NSaved= 7 IEnMin= 7 EnMin= -436.894488498277     IErMin= 7 ErrMin= 8.56D-05
 ErrMax= 8.56D-05  0.00D+00 EMaxC= 1.00D-01 BMatC= 9.70D-07 BMatP= 1.56D-05
 IDIUse=1 WtCom= 1.00D+00 WtEn= 0.00D+00
 Coeff-Com: -0.514D-04-0.103D-02 0.138D-01 0.407D-01 0.119D+00 0.282D+00
 Coeff-Com:  0.545D+00
 Coeff:     -0.514D-04-0.103D-02 0.138D-01 0.407D-01 0.119D+00 0.282D+00
 Coeff:      0.545D+00
 Gap=     0.167 Goal=   None    Shift=    0.000
 RMSDP=9.14D-06 MaxDP=5.63D-04 DE=-1.38D-05 OVMax= 6.06D-04

 Cycle   8  Pass 1  IDiag  1:
 RMSU=  5.63D-06    CP:  9.13D-01  9.92D-01  7.89D-01  8.07D-01  8.31D-01
                    CP:  7.83D-01  8.02D-01
 E= -436.894489368857     Delta-E=       -0.000000870580 Rises=F Damp=F
 DIIS: error= 2.64D-05 at cycle   8 NSaved=   8.
 NSaved= 8 IEnMin= 8 EnMin= -436.894489368857     IErMin= 8 ErrMin= 2.64D-05
 ErrMax= 2.64D-05  0.00D+00 EMaxC= 1.00D-01 BMatC= 1.10D-07 BMatP= 9.70D-07
 IDIUse=1 WtCom= 1.00D+00 WtEn= 0.00D+00
 Coeff-Com: -0.280D-04-0.319D-03 0.110D-03 0.235D-02 0.103D-01 0.370D-01
 Coeff-Com:  0.270D+00 0.680D+00
 Coeff:     -0.280D-04-0.319D-03 0.110D-03 0.235D-02 0.103D-01 0.370D-01
 Coeff:      0.270D+00 0.680D+00
 Gap=     0.167 Goal=   None    Shift=    0.000
 RMSDP=3.12D-06 MaxDP=1.82D-04 DE=-8.71D-07 OVMax= 1.64D-04

 Cycle   9  Pass 1  IDiag  1:
 RMSU=  2.05D-06    CP:  9.13D-01  9.92D-01  7.89D-01  8.08D-01  8.28D-01
                    CP:  7.94D-01  7.54D-01  9.91D-01
 E= -436.894489481101     Delta-E=       -0.000000112244 Rises=F Damp=F
 DIIS: error= 2.94D-06 at cycle   9 NSaved=   9.
 NSaved= 9 IEnMin= 9 EnMin= -436.894489481101     IErMin= 9 ErrMin= 2.94D-06
 ErrMax= 2.94D-06  0.00D+00 EMaxC= 1.00D-01 BMatC= 2.14D-09 BMatP= 1.10D-07
 IDIUse=1 WtCom= 1.00D+00 WtEn= 0.00D+00
 Coeff-Com:  0.829D-05-0.782D-04-0.254D-03-0.378D-03-0.352D-03 0.347D-02
 Coeff-Com:  0.593D-01 0.194D+00 0.744D+00
 Coeff:      0.829D-05-0.782D-04-0.254D-03-0.378D-03-0.352D-03 0.347D-02
 Coeff:      0.593D-01 0.194D+00 0.744D+00
 Gap=     0.167 Goal=   None    Shift=    0.000
 RMSDP=4.07D-07 MaxDP=2.11D-05 DE=-1.12D-07 OVMax= 3.28D-05

 Cycle  10  Pass 1  IDiag  1:
 RMSU=  2.37D-07    CP:  9.13D-01  9.92D-01  7.90D-01  8.08D-01  8.29D-01
                    CP:  7.95D-01  7.64D-01  9.95D-01  9.15D-01
 E= -436.894489482325     Delta-E=       -0.000000001224 Rises=F Damp=F
 DIIS: error= 2.31D-06 at cycle  10 NSaved=  10.
 NSaved=10 IEnMin=10 EnMin= -436.894489482325     IErMin=10 ErrMin= 2.31D-06
 ErrMax= 2.31D-06  0.00D+00 EMaxC= 1.00D-01 BMatC= 8.44D-10 BMatP= 2.14D-09
 IDIUse=1 WtCom= 1.00D+00 WtEn= 0.00D+00
 Coeff-Com:  0.933D-05-0.225D-04-0.181D-03-0.524D-03-0.138D-02-0.146D-02
 Coeff-Com:  0.934D-02 0.512D-01 0.441D+00 0.502D+00
 Coeff:      0.933D-05-0.225D-04-0.181D-03-0.524D-03-0.138D-02-0.146D-02
 Coeff:      0.934D-02 0.512D-01 0.441D+00 0.502D+00
 Gap=     0.167 Goal=   None    Shift=    0.000
 RMSDP=1.19D-07 MaxDP=3.81D-06 DE=-1.22D-09 OVMax= 9.26D-06

 Cycle  11  Pass 1  IDiag  1:
 RMSU=  8.71D-08    CP:  9.13D-01  9.92D-01  7.90D-01  8.08D-01  8.29D-01
                    CP:  7.95D-01  7.66D-01  1.00D+00  9.27D-01  9.27D-01
 E= -436.894489483075     Delta-E=       -0.000000000750 Rises=F Damp=F
 DIIS: error= 2.25D-07 at cycle  11 NSaved=  11.
 NSaved=11 IEnMin=11 EnMin= -436.894489483075     IErMin=11 ErrMin= 2.25D-07
 ErrMax= 2.25D-07  0.00D+00 EMaxC= 1.00D-01 BMatC= 8.68D-12 BMatP= 8.44D-10
 IDIUse=1 WtCom= 1.00D+00 WtEn= 0.00D+00
 Coeff-Com:  0.203D-05-0.291D-06-0.140D-04-0.881D-04-0.279D-03-0.412D-03
 Coeff-Com: -0.335D-02-0.695D-02 0.300D-01 0.495D-01 0.932D+00
 Coeff:      0.203D-05-0.291D-06-0.140D-04-0.881D-04-0.279D-03-0.412D-03
 Coeff:     -0.335D-02-0.695D-02 0.300D-01 0.495D-01 0.932D+00
 Gap=     0.167 Goal=   None    Shift=    0.000
 RMSDP=7.79D-08 MaxDP=4.08D-06 DE=-7.50D-10 OVMax= 1.36D-06

 Cycle  12  Pass 1  IDiag  1:
 RMSU=  2.22D-08    CP:  9.13D-01  9.92D-01  7.90D-01  8.08D-01  8.29D-01
                    CP:  7.96D-01  7.65D-01  1.01D+00  9.43D-01  9.62D-01
                    CP:  1.09D+00
 E= -436.894489483083     Delta-E=       -0.000000000008 Rises=F Damp=F
 DIIS: error= 4.37D-08 at cycle  12 NSaved=  12.
 NSaved=12 IEnMin=12 EnMin= -436.894489483083     IErMin=12 ErrMin= 4.37D-08
 ErrMax= 4.37D-08  0.00D+00 EMaxC= 1.00D-01 BMatC= 4.01D-13 BMatP= 8.68D-12
 IDIUse=1 WtCom= 1.00D+00 WtEn= 0.00D+00
 Coeff-Com:  0.171D-06 0.417D-06 0.964D-06-0.323D-05-0.168D-04-0.232D-04
 Coeff-Com: -0.675D-03-0.205D-02-0.498D-02-0.158D-01 0.170D+00 0.854D+00
 Coeff:      0.171D-06 0.417D-06 0.964D-06-0.323D-05-0.168D-04-0.232D-04
 Coeff:     -0.675D-03-0.205D-02-0.498D-02-0.158D-01 0.170D+00 0.854D+00
 Gap=     0.167 Goal=   None    Shift=    0.000
 RMSDP=8.96D-09 MaxDP=4.08D-07 DE=-8.01D-12 OVMax= 2.18D-07

 Error on total polarization charges =  0.01230
 SCF Done:  E(RB3LYP) =  -436.894489483     A.U. after   12 cycles
            NFock= 12  Conv=0.90D-08     -V/T= 2.0041
 KE= 4.350893126214D+02 PE=-1.839073729047D+03 EE= 5.577034871600D+02
 Leave Link  502 at Tue Dec  9 19:54:19 2025, MaxMem=  1610612736 cpu:             346.0 elap:              29.1
 (Enter /opt/g16/l601.exe)
 Copying SCF densities to generalized density rwf, IOpCl= 0 IROHF=0.

 **********************************************************************

            Population analysis using the SCF Density.

 **********************************************************************

 Orbital symmetries:
       Occupied  (A") (A') (A') (A') (A") (A') (A') (A") (A') (A')
                 (A") (A') (A') (A") (A') (A") (A') (A') (A') (A")
                 (A') (A") (A') (A") (A') (A') (A") (A') (A") (A")
                 (A') (A")
       Virtual   (A') (A") (A') (A') (A") (A') (A") (A') (A') (A')
                 (A') (A") (A') (A') (A") (A') (A") (A') (A') (A")
                 (A') (A') (A") (A") (A") (A') (A') (A') (A") (A')
                 (A') (A") (A') (A') (A') (A") (A") (A') (A") (A")
                 (A') (A") (A') (A') (A') (A') (A") (A") (A') (A')
                 (A") (A') (A') (A") (A') (A") (A") (A') (A') (A")
                 (A') (A") (A') (A") (A') (A") (A') (A') (A") (A')
                 (A") (A') (A") (A') (A") (A") (A') (A') (A") (A')
                 (A') (A') (A") (A') (A") (A') (A") (A') (A") (A')
                 (A") (A') (A') (A') (A') (A') (A") (A") (A') (A")
                 (A") (A') (A') (A") (A") (A') (A') (A') (A") (A')
                 (A") (A') (A") (A') (A') (A") (A') (A") (A") (A')
                 (A") (A") (A') (A') (A') (A') (A") (A") (A') (A')
                 (A") (A") (A') (A') (A") (A") (A") (A') (A") (A")
                 (A') (A') (A') (A') (A") (A') (A") (A') (A") (A')
                 (A') (A") (A") (A") (A') (A') (A") (A') (A") (A')
                 (A") (A') (A') (A') (A") (A") (A') (A") (A') (A')
                 (A') (A') (A") (A') (A") (A') (A') (A") (A') (A")
                 (A") (A") (A') (A") (A") (A") (A') (A') (A') (A')
                 (A") (A') (A") (A') (A') (A") (A") (A') (A") (A')
                 (A') (A') (A") (A') (A") (A") (A') (A') (A") (A')
                 (A") (A') (A") (A') (A') (A") (A') (A") (A') (A')
                 (A") (A") (A') (A') (A") (A") (A') (A') (A') (A")
                 (A") (A') (A") (A') (A") (A') (A') (A") (A") (A')
                 (A') (A") (A") (A') (A') (A") (A") (A') (A") (A')
                 (A') (A") (A') (A") (A') (A") (A") (A') (A') (A')
                 (A") (A') (A") (A') (A") (A") (A') (A') (A') (A")
                 (A') (A') (A") (A') (A') (A")
 The electronic state is 1-A'.
 Alpha  occ. eigenvalues --  -19.17368 -19.17365 -14.56967 -10.25276 -10.21001
 Alpha  occ. eigenvalues --  -10.20999 -10.20347 -10.20044 -10.20038  -1.24269
 Alpha  occ. eigenvalues --   -1.06262  -0.89749  -0.82031  -0.77728  -0.71702
 Alpha  occ. eigenvalues --   -0.63913  -0.61002  -0.57697  -0.54901  -0.53502
 Alpha  occ. eigenvalues --   -0.52135  -0.47927  -0.47344  -0.45155  -0.39726
 Alpha  occ. eigenvalues --   -0.39548  -0.37699  -0.34003  -0.33333  -0.31081
 Alpha  occ. eigenvalues --   -0.29188  -0.28324
 Alpha virt. eigenvalues --   -0.11648  -0.04129  -0.01896  -0.00588   0.01327
 Alpha virt. eigenvalues --    0.01408   0.03622   0.03826   0.05050   0.05341
 Alpha virt. eigenvalues --    0.07565   0.08487   0.08617   0.09863   0.09940
 Alpha virt. eigenvalues --    0.10799   0.11263   0.11433   0.11974   0.12551
 Alpha virt. eigenvalues --    0.13067   0.13500   0.13526   0.13585   0.14156
 Alpha virt. eigenvalues --    0.14740   0.15564   0.17573   0.17907   0.18571
 Alpha virt. eigenvalues --    0.18760   0.19204   0.19572   0.20503   0.22300
 Alpha virt. eigenvalues --    0.23507   0.23949   0.24373   0.25408   0.25874
 Alpha virt. eigenvalues --    0.25974   0.26718   0.27380   0.27622   0.28402
 Alpha virt. eigenvalues --    0.30799   0.31077   0.31723   0.33186   0.33716
 Alpha virt. eigenvalues --    0.33781   0.34449   0.35167   0.36209   0.37909
 Alpha virt. eigenvalues --    0.38403   0.39947   0.41253   0.43323   0.43783
 Alpha virt. eigenvalues --    0.43933   0.46888   0.47747   0.48107   0.48493
 Alpha virt. eigenvalues --    0.50248   0.50942   0.52298   0.54039   0.55158
 Alpha virt. eigenvalues --    0.56338   0.57377   0.57901   0.58053   0.60867
 Alpha virt. eigenvalues --    0.61697   0.62442   0.62723   0.64422   0.66404
 Alpha virt. eigenvalues --    0.67685   0.68377   0.68786   0.72875   0.73632
 Alpha virt. eigenvalues --    0.75089   0.75367   0.76585   0.76899   0.78069
 Alpha virt. eigenvalues --    0.78376   0.80785   0.82655   0.83166   0.87704
 Alpha virt. eigenvalues --    0.87714   0.88094   0.88533   0.89896   0.90683
 Alpha virt. eigenvalues --    0.91119   0.91834   0.94488   0.95347   0.96759
 Alpha virt. eigenvalues --    0.96941   0.99892   1.02054   1.03738   1.05264
 Alpha virt. eigenvalues --    1.05802   1.06244   1.06738   1.07713   1.11799
 Alpha virt. eigenvalues --    1.12269   1.14319   1.15198   1.17466   1.18048
 Alpha virt. eigenvalues --    1.18082   1.19645   1.20761   1.21101   1.27223
 Alpha virt. eigenvalues --    1.27379   1.27471   1.27608   1.29394   1.31871
 Alpha virt. eigenvalues --    1.32518   1.36441   1.39833   1.44095   1.45261
 Alpha virt. eigenvalues --    1.51645   1.51931   1.54422   1.59101   1.61584
 Alpha virt. eigenvalues --    1.61589   1.65411   1.66005   1.71430   1.71924
 Alpha virt. eigenvalues --    1.76054   1.76182   1.78417   1.78959   1.84397
 Alpha virt. eigenvalues --    1.86479   1.86858   1.90138   1.91961   1.93124
 Alpha virt. eigenvalues --    1.96993   2.06719   2.09013   2.12488   2.13709
 Alpha virt. eigenvalues --    2.22169   2.34504   2.37393   2.44127   2.45201
 Alpha virt. eigenvalues --    2.49646   2.51459   2.55803   2.58493   2.59888
 Alpha virt. eigenvalues --    2.70012   2.74402   2.76153   2.76720   2.80893
 Alpha virt. eigenvalues --    2.81743   2.82824   2.83113   2.85139   2.86174
 Alpha virt. eigenvalues --    2.86442   2.90230   2.98557   3.01856   3.05532
 Alpha virt. eigenvalues --    3.13488   3.14227   3.16478   3.24835   3.25133
 Alpha virt. eigenvalues --    3.32092   3.34356   3.36641   3.37178   3.37540
 Alpha virt. eigenvalues --    3.39319   3.41379   3.42163   3.42511   3.43831
 Alpha virt. eigenvalues --    3.47379   3.55202   3.55897   3.56422   3.57692
 Alpha virt. eigenvalues --    3.58467   3.58700   3.60279   3.61750   3.62975
 Alpha virt. eigenvalues --    3.71470   3.77867   3.78495   3.79603   3.81077
 Alpha virt. eigenvalues --    3.83280   3.84071   3.92243   3.96479   4.02848
 Alpha virt. eigenvalues --    4.06378   4.08858   4.10389   4.30226   4.41581
 Alpha virt. eigenvalues --    4.50182   4.57109   4.63829   4.77220   4.79746
 Alpha virt. eigenvalues --    4.82396   4.83813   4.98526   5.00511   5.04938
 Alpha virt. eigenvalues --    5.05353   5.09508   5.23575   5.47116   5.51688
 Alpha virt. eigenvalues --    5.97147   6.30591   6.71886   6.72327   6.79610
 Alpha virt. eigenvalues --    6.84971   6.90299   6.93933   7.05923   7.13117
 Alpha virt. eigenvalues --    7.23957   7.27181   8.20567   8.25056   8.30208
 Alpha virt. eigenvalues --    8.34082   8.41824   8.45788   8.52308   8.59338
 Alpha virt. eigenvalues --    8.60188   8.65367   8.70980   8.76949   8.80008
 Alpha virt. eigenvalues --    8.86127   8.97095  23.66282  23.97293  23.98102
 Alpha virt. eigenvalues --   24.07040  24.10631  24.14791  35.54114  49.91584
 Alpha virt. eigenvalues --   50.04917
          Condensed to atoms (all electrons):
               1          2          3          4          5          6
     1  C    6.307949  -0.138747   0.137775  -0.899901   0.417503   0.099106
     2  C   -0.138747   7.550695  -0.845203  -0.949684  -0.899901   0.295725
     3  C    0.137775  -0.845203   9.189218  -0.845203   0.137775  -0.696282
     4  C   -0.899901  -0.949684  -0.845203   7.550695  -0.138747   0.295725
     5  C    0.417503  -0.899901   0.137775  -0.138747   6.307949   0.099106
     6  C    0.099106   0.295725  -0.696282   0.295725   0.099106   5.599734
     7  H    0.428319  -0.026515  -0.035976   0.001887   0.024571  -0.084065
     8  H    0.013778   0.044762   0.020922   0.317253  -0.080330  -0.000368
     9  H    0.024571   0.001887  -0.035976  -0.026515   0.428319  -0.084065
    10  H   -0.048639   0.021408  -0.028792   0.021408  -0.048639   0.400255
    11  N    0.005446  -0.077691   0.096469  -0.077691   0.005446   0.033450
    12  O    0.019089   0.068591  -0.301864   0.092482   0.111280  -0.015950
    13  O    0.111280   0.092482  -0.301864   0.068591   0.019089  -0.015950
    14  H   -0.080330   0.317253   0.020922   0.044762   0.013778  -0.000368
               7          8          9         10         11         12
     1  C    0.428319   0.013778   0.024571  -0.048639   0.005446   0.019089
     2  C   -0.026515   0.044762   0.001887   0.021408  -0.077691   0.068591
     3  C   -0.035976   0.020922  -0.035976  -0.028792   0.096469  -0.301864
     4  C    0.001887   0.317253  -0.026515   0.021408  -0.077691   0.092482
     5  C    0.024571  -0.080330   0.428319  -0.048639   0.005446   0.111280
     6  C   -0.084065  -0.000368  -0.084065   0.400255   0.033450  -0.015950
     7  H    0.618753   0.001138   0.002895  -0.002329  -0.000475   0.001054
     8  H    0.001138   0.616050  -0.003442   0.001332  -0.032818  -0.011690
     9  H    0.002895  -0.003442   0.618753  -0.002329  -0.000475   0.003633
    10  H   -0.002329   0.001332  -0.002329   0.605543   0.001193  -0.000068
    11  N   -0.000475  -0.032818  -0.000475   0.001193   6.065257   0.446286
    12  O    0.001054  -0.011690   0.003633  -0.000068   0.446286   7.890068
    13  O    0.003633  -0.000496   0.001054  -0.000068   0.446286  -0.087983
    14  H   -0.003442  -0.000953   0.001138   0.001332  -0.032818  -0.000496
              13         14
     1  C    0.111280  -0.080330
     2  C    0.092482   0.317253
     3  C   -0.301864   0.020922
     4  C    0.068591   0.044762
     5  C    0.019089   0.013778
     6  C   -0.015950  -0.000368
     7  H    0.003633  -0.003442
     8  H   -0.000496  -0.000953
     9  H    0.001054   0.001138
    10  H   -0.000068   0.001332
    11  N    0.446286  -0.032818
    12  O   -0.087983  -0.000496
    13  O    7.890068  -0.011690
    14  H   -0.011690   0.616050
 Mulliken charges:
               1
     1  C   -0.397198
     2  C    0.544938
     3  C   -0.511922
     4  C    0.544938
     5  C   -0.397198
     6  C    0.073948
     7  H    0.070551
     8  H    0.114863
     9  H    0.070551
    10  H    0.078391
    11  N    0.122137
    12  O   -0.214432
    13  O   -0.214432
    14  H    0.114863
 Sum of Mulliken charges =  -0.00000
 Mulliken charges with hydrogens summed into heavy atoms:
               1
     1  C   -0.326647
     2  C    0.659801
     3  C   -0.511922
     4  C    0.659801
     5  C   -0.326647
     6  C    0.152339
    11  N    0.122137
    12  O   -0.214432
    13  O   -0.214432
 Electronic spatial extent (au):  <R**2>=           1145.0595
 Charge=              0.0000 electrons
 Dipole moment (field-independent basis, Debye):
    X=              0.0000    Y=             -6.7081    Z=              0.0000  Tot=              6.7081
 Quadrupole moment (field-independent basis, Debye-Ang):
   XX=            -53.2810   YY=            -56.4116   ZZ=            -47.6393
   XY=             -0.0000   XZ=             -0.0000   YZ=             -0.0000
 Traceless Quadrupole moment (field-independent basis, Debye-Ang):
   XX=             -0.8371   YY=             -3.9677   ZZ=              4.8047
   XY=             -0.0000   XZ=             -0.0000   YZ=             -0.0000
 Octapole moment (field-independent basis, Debye-Ang**2):
  XXX=              0.0000  YYY=            -49.7856  ZZZ=             -0.0000  XYY=              0.0000
  XXY=             11.9382  XXZ=             -0.0000  XZZ=              0.0000  YZZ=            -11.7456
  YYZ=             -0.0000  XYZ=             -0.0000
 Hexadecapole moment (field-independent basis, Debye-Ang**3):
 XXXX=            -56.6069 YYYY=          -1049.9264 ZZZZ=           -346.2250 XXXY=              0.0001
 XXXZ=             -0.0000 YYYX=             -0.0001 YYYZ=              0.0000 ZZZX=              0.0000
 ZZZY=             -0.0000 XXYY=           -190.5783 XXZZ=            -79.2215 YYZZ=           -237.0978
 XXYZ=              0.0000 YYXZ=             -0.0000 ZZXY=              0.0000
 N-N= 4.093864397825D+02 E-N=-1.839073729772D+03  KE= 4.350893126214D+02
 Symmetry A'   KE= 2.749028708191D+02
 Symmetry A"   KE= 1.601864418022D+02
 There are a total of      324752 grid points.
 ElSum from          density=       63.9999742178
 ElSum from atomic densities=       63.9999038936

 Hirshfeld populations at iteration   1 (CX, CA, CB, DipXYZ):
               1          2          3          4          5          6
     1  C    0.000000   3.009649   3.009649  -0.000000  -0.035643  -0.059359
     2  C    0.000000   3.009332   3.009332   0.000000   0.005405  -0.047672
     3  C    0.000000   2.985689   2.985689  -0.000000   0.106973  -0.000000
     4  C    0.000000   3.009332   3.009332   0.000000   0.005405   0.047672
     5  C    0.000000   3.009649   3.009649  -0.000000  -0.035643   0.059359
     6  C    0.000000   3.002578   3.002578   0.000000  -0.075418  -0.000000
     7  H    0.000002   0.470150   0.470150   0.000000  -0.084309  -0.143002
     8  H    0.000002   0.473842   0.473842   0.000000   0.041534   0.151862
     9  H    0.000002   0.470150   0.470150   0.000000  -0.084309   0.143002
    10  H    0.000001   0.469570   0.469570   0.000000  -0.164731   0.000000
    11  N    0.000000   3.379817   3.379817  -0.000000  -0.041539  -0.000000
    12  O    0.000003   4.118193   4.118193   0.000000  -0.138461  -0.126175
    13  O    0.000003   4.118193   4.118193   0.000000  -0.138461   0.126175
    14  H    0.000002   0.473842   0.473842   0.000000   0.041534  -0.151862
       Tot   0.000017  31.999987  31.999987   0.000001  -0.597664   0.000000

 Dip from Atomic Chgs              0.000001  -2.041539  -0.000000
         Total Dipole              0.000002  -2.639202  -0.000000

 Hirshfeld charges, spin densities, dipoles, and CM5 charges using IRadAn=      5:
              Q-H        S-H        Dx         Dy         Dz        Q-CM5   
     1  C   -0.019299   0.000000  -0.000000  -0.035643  -0.059359  -0.076493
     2  C   -0.018663   0.000000   0.000000   0.005405  -0.047672  -0.067522
     3  C    0.028621   0.000000  -0.000000   0.106973  -0.000000   0.079877
     4  C   -0.018663   0.000000   0.000000   0.005405   0.047672  -0.067522
     5  C   -0.019299   0.000000  -0.000000  -0.035643   0.059359  -0.076493
     6  C   -0.005156   0.000000   0.000000  -0.075418  -0.000000  -0.062612
     7  H    0.059700   0.000000   0.000000  -0.084309  -0.143002   0.117299
     8  H    0.052315   0.000000   0.000000   0.041534   0.151862   0.116585
     9  H    0.059700   0.000000   0.000000  -0.084309   0.143002   0.117299
    10  H    0.060859   0.000000   0.000000  -0.164731   0.000000   0.118427
    11  N    0.240367   0.000000  -0.000000  -0.041539  -0.000000   0.079811
    12  O   -0.236385   0.000000   0.000000  -0.138461  -0.126175  -0.197608
    13  O   -0.236385   0.000000   0.000000  -0.138461   0.126175  -0.197608
    14  H    0.052315   0.000000   0.000000   0.041534  -0.151862   0.116585
       Tot   0.000026   0.000000   0.000001  -0.597664   0.000000   0.000026
 Hirshfeld charges with hydrogens summed into heavy atoms:
              Q-H       Q-CM5   
     1  C    0.040401   0.040806
     2  C    0.033652   0.049063
     3  C    0.028621   0.079877
     4  C    0.033652   0.049063
     5  C    0.040401   0.040806
     6  C    0.055703   0.055816
    11  N    0.240367   0.079811
    12  O   -0.236385  -0.197608
    13  O   -0.236385  -0.197608
 
 EQQ=  0.00000000000     EQD=  0.00000000000     EDD= 0.760304294374E-02
 EQQ+QD+DD= 0.760304294374E-02
 
 No NMR shielding tensors so no spin-rotation constants.
 Leave Link  601 at Tue Dec  9 19:54:20 2025, MaxMem=  1610612736 cpu:               8.9 elap:               0.8
 (Enter /opt/g16/l607.exe)
 ******************************Gaussian NBO Version 3.1******************************
             N A T U R A L   A T O M I C   O R B I T A L   A N D
          N A T U R A L   B O N D   O R B I T A L   A N A L Y S I S
 ******************************Gaussian NBO Version 3.1******************************
       /RESON  / : Allow strongly delocalized NBO set

 Analyzing the SCF density

 Job title: NitroBenzene                                                    

 Storage needed:    285944 in NPA,    380603 in NBO (1610611644 available)
 GSVD:  LWork=       44310 too small for GESVD, short by       55385 words or       55385 for optimal perf.


 NATURAL POPULATIONS:  Natural atomic orbital occupancies 
                                                          
   NAO  Atom  No  lang   Type(AO)    Occupancy      Energy
 ----------------------------------------------------------
     1    C    1  S      Cor( 1S)     1.99916     -10.05635
     2    C    1  S      Val( 2S)     0.95984      -0.19996
     3    C    1  S      Ryd( 4S)     0.00150       1.42314
     4    C    1  S      Ryd( 5S)     0.00002      20.98212
     5    C    1  S      Ryd( 3S)     0.00002       0.64789
     6    C    1  px     Val( 2p)     0.98574      -0.13217
     7    C    1  px     Ryd( 4p)     0.00078       0.60328
     8    C    1  px     Ryd( 3p)     0.00035       0.56692
     9    C    1  px     Ryd( 5p)     0.00001       2.47943
    10    C    1  py     Val( 2p)     1.07667      -0.06520
    11    C    1  py     Ryd( 4p)     0.00463       1.39492
    12    C    1  py     Ryd( 3p)     0.00015       0.85042
    13    C    1  py     Ryd( 5p)     0.00009       2.56372
    14    C    1  pz     Val( 2p)     1.15282      -0.06872
    15    C    1  pz     Ryd( 4p)     0.00578       1.29568
    16    C    1  pz     Ryd( 3p)     0.00012       0.82945
    17    C    1  pz     Ryd( 5p)     0.00006       2.88571
    18    C    1  dxy    Ryd( 3d)     0.00028       1.46243
    19    C    1  dxy    Ryd( 4d)     0.00007       3.01285
    20    C    1  dxz    Ryd( 3d)     0.00041       1.42543
    21    C    1  dxz    Ryd( 4d)     0.00003       3.01873
    22    C    1  dyz    Ryd( 3d)     0.00103       2.16464
    23    C    1  dyz    Ryd( 4d)     0.00041       3.61158
    24    C    1  dx2y2  Ryd( 3d)     0.00123       2.28209
    25    C    1  dx2y2  Ryd( 4d)     0.00016       3.39570
    26    C    1  dz2    Ryd( 3d)     0.00104       2.13054
    27    C    1  dz2    Ryd( 4d)     0.00025       3.50989
 
    28    C    2  S      Cor( 1S)     1.99907     -10.06295
    29    C    2  S      Val( 2S)     0.95681      -0.20275
    30    C    2  S      Ryd( 3S)     0.00152       1.26725
    31    C    2  S      Ryd( 4S)     0.00003       1.61990
    32    C    2  S      Ryd( 5S)     0.00001      20.48740
    33    C    2  px     Val( 2p)     0.94527      -0.13631
    34    C    2  px     Ryd( 4p)     0.00106       0.58800
    35    C    2  px     Ryd( 3p)     0.00041       0.39435
    36    C    2  px     Ryd( 5p)     0.00002       2.70072
    37    C    2  py     Val( 2p)     1.09927      -0.07764
    38    C    2  py     Ryd( 4p)     0.00484       1.44956
    39    C    2  py     Ryd( 3p)     0.00029       0.63505
    40    C    2  py     Ryd( 5p)     0.00011       2.94136
    41    C    2  pz     Val( 2p)     1.14638      -0.07578
    42    C    2  pz     Ryd( 4p)     0.00561       1.22301
    43    C    2  pz     Ryd( 3p)     0.00015       0.59793
    44    C    2  pz     Ryd( 5p)     0.00008       3.23416
    45    C    2  dxy    Ryd( 3d)     0.00034       1.35020
    46    C    2  dxy    Ryd( 4d)     0.00009       3.11384
    47    C    2  dxz    Ryd( 3d)     0.00045       1.32199
    48    C    2  dxz    Ryd( 4d)     0.00006       3.12736
    49    C    2  dyz    Ryd( 3d)     0.00113       2.03544
    50    C    2  dyz    Ryd( 4d)     0.00048       3.71825
    51    C    2  dx2y2  Ryd( 3d)     0.00140       2.17573
    52    C    2  dx2y2  Ryd( 4d)     0.00013       3.47117
    53    C    2  dz2    Ryd( 3d)     0.00098       2.00828
    54    C    2  dz2    Ryd( 4d)     0.00028       3.59299
 
    55    C    3  S      Cor( 1S)     1.99876     -10.11995
    56    C    3  S      Val( 2S)     0.87678      -0.19620
    57    C    3  S      Ryd( 3S)     0.00089       0.89720
    58    C    3  S      Ryd( 4S)     0.00010       2.34185
    59    C    3  S      Ryd( 5S)     0.00002      19.64560
    60    C    3  px     Val( 2p)     1.08832      -0.15968
    61    C    3  px     Ryd( 4p)     0.00067       0.57770
    62    C    3  px     Ryd( 3p)     0.00038       0.30117
    63    C    3  px     Ryd( 5p)     0.00003       2.75935
    64    C    3  py     Val( 2p)     0.83718      -0.08556
    65    C    3  py     Ryd( 4p)     0.00660       0.91853
    66    C    3  py     Ryd( 3p)     0.00008       0.50163
    67    C    3  py     Ryd( 5p)     0.00012       3.53237
    68    C    3  pz     Val( 2p)     1.11280      -0.10457
    69    C    3  pz     Ryd( 4p)     0.00699       1.41970
    70    C    3  pz     Ryd( 3p)     0.00030       0.34623
    71    C    3  pz     Ryd( 5p)     0.00018       3.29919
    72    C    3  dxy    Ryd( 3d)     0.00036       1.42294
    73    C    3  dxy    Ryd( 4d)     0.00009       3.04712
    74    C    3  dxz    Ryd( 3d)     0.00051       1.41177
    75    C    3  dxz    Ryd( 4d)     0.00016       3.07796
    76    C    3  dyz    Ryd( 3d)     0.00064       2.49743
    77    C    3  dyz    Ryd( 4d)     0.00053       3.84005
    78    C    3  dx2y2  Ryd( 3d)     0.00088       1.77523
    79    C    3  dx2y2  Ryd( 4d)     0.00043       3.48766
    80    C    3  dz2    Ryd( 3d)     0.00133       2.06650
    81    C    3  dz2    Ryd( 4d)     0.00049       3.39336
 
    82    C    4  S      Cor( 1S)     1.99907     -10.06295
    83    C    4  S      Val( 2S)     0.95681      -0.20275
    84    C    4  S      Ryd( 3S)     0.00152       1.26725
    85    C    4  S      Ryd( 4S)     0.00003       1.61986
    86    C    4  S      Ryd( 5S)     0.00001      20.48744
    87    C    4  px     Val( 2p)     0.94527      -0.13631
    88    C    4  px     Ryd( 4p)     0.00106       0.58800
    89    C    4  px     Ryd( 3p)     0.00041       0.39435
    90    C    4  px     Ryd( 5p)     0.00002       2.70072
    91    C    4  py     Val( 2p)     1.09927      -0.07764
    92    C    4  py     Ryd( 4p)     0.00484       1.44956
    93    C    4  py     Ryd( 3p)     0.00029       0.63505
    94    C    4  py     Ryd( 5p)     0.00011       2.94136
    95    C    4  pz     Val( 2p)     1.14638      -0.07578
    96    C    4  pz     Ryd( 4p)     0.00561       1.22301
    97    C    4  pz     Ryd( 3p)     0.00015       0.59793
    98    C    4  pz     Ryd( 5p)     0.00008       3.23416
    99    C    4  dxy    Ryd( 3d)     0.00034       1.35020
   100    C    4  dxy    Ryd( 4d)     0.00009       3.11384
   101    C    4  dxz    Ryd( 3d)     0.00045       1.32199
   102    C    4  dxz    Ryd( 4d)     0.00006       3.12736
   103    C    4  dyz    Ryd( 3d)     0.00113       2.03544
   104    C    4  dyz    Ryd( 4d)     0.00048       3.71825
   105    C    4  dx2y2  Ryd( 3d)     0.00140       2.17573
   106    C    4  dx2y2  Ryd( 4d)     0.00013       3.47117
   107    C    4  dz2    Ryd( 3d)     0.00098       2.00828
   108    C    4  dz2    Ryd( 4d)     0.00028       3.59299
 
   109    C    5  S      Cor( 1S)     1.99916     -10.05635
   110    C    5  S      Val( 2S)     0.95984      -0.19996
   111    C    5  S      Ryd( 4S)     0.00150       1.42314
   112    C    5  S      Ryd( 5S)     0.00002      20.98212
   113    C    5  S      Ryd( 3S)     0.00002       0.64789
   114    C    5  px     Val( 2p)     0.98574      -0.13217
   115    C    5  px     Ryd( 4p)     0.00078       0.60328
   116    C    5  px     Ryd( 3p)     0.00035       0.56692
   117    C    5  px     Ryd( 5p)     0.00001       2.47943
   118    C    5  py     Val( 2p)     1.07667      -0.06520
   119    C    5  py     Ryd( 4p)     0.00463       1.39492
   120    C    5  py     Ryd( 3p)     0.00015       0.85042
   121    C    5  py     Ryd( 5p)     0.00009       2.56372
   122    C    5  pz     Val( 2p)     1.15282      -0.06872
   123    C    5  pz     Ryd( 4p)     0.00578       1.29568
   124    C    5  pz     Ryd( 3p)     0.00012       0.82945
   125    C    5  pz     Ryd( 5p)     0.00006       2.88571
   126    C    5  dxy    Ryd( 3d)     0.00028       1.46243
   127    C    5  dxy    Ryd( 4d)     0.00007       3.01285
   128    C    5  dxz    Ryd( 3d)     0.00041       1.42543
   129    C    5  dxz    Ryd( 4d)     0.00003       3.01873
   130    C    5  dyz    Ryd( 3d)     0.00103       2.16464
   131    C    5  dyz    Ryd( 4d)     0.00041       3.61158
   132    C    5  dx2y2  Ryd( 3d)     0.00123       2.28209
   133    C    5  dx2y2  Ryd( 4d)     0.00016       3.39570
   134    C    5  dz2    Ryd( 3d)     0.00104       2.13054
   135    C    5  dz2    Ryd( 4d)     0.00025       3.50989
 
   136    C    6  S      Cor( 1S)     1.99916     -10.05798
   137    C    6  S      Val( 2S)     0.96362      -0.20183
   138    C    6  S      Ryd( 4S)     0.00147       1.38634
   139    C    6  S      Ryd( 5S)     0.00002      21.10756
   140    C    6  S      Ryd( 3S)     0.00001       0.63400
   141    C    6  px     Val( 2p)     0.93281      -0.13049
   142    C    6  px     Ryd( 4p)     0.00061       0.59611
   143    C    6  px     Ryd( 3p)     0.00029       0.56805
   144    C    6  px     Ryd( 5p)     0.00000       2.47035
   145    C    6  py     Val( 2p)     1.17898      -0.06517
   146    C    6  py     Ryd( 4p)     0.00654       1.22473
   147    C    6  py     Ryd( 3p)     0.00008       0.89758
   148    C    6  py     Ryd( 5p)     0.00005       3.06728
   149    C    6  pz     Val( 2p)     1.05520      -0.06449
   150    C    6  pz     Ryd( 4p)     0.00403       1.36678
   151    C    6  pz     Ryd( 3p)     0.00014       0.85893
   152    C    6  pz     Ryd( 5p)     0.00010       2.41168
   153    C    6  dxy    Ryd( 3d)     0.00048       1.43332
   154    C    6  dxy    Ryd( 4d)     0.00002       2.99077
   155    C    6  dxz    Ryd( 3d)     0.00024       1.50011
   156    C    6  dxz    Ryd( 4d)     0.00008       2.97765
   157    C    6  dyz    Ryd( 3d)     0.00082       2.36563
   158    C    6  dyz    Ryd( 4d)     0.00029       3.47620
   159    C    6  dx2y2  Ryd( 3d)     0.00137       1.88318
   160    C    6  dx2y2  Ryd( 4d)     0.00012       3.44055
   161    C    6  dz2    Ryd( 3d)     0.00117       2.32711
   162    C    6  dz2    Ryd( 4d)     0.00038       3.52197
 
   163    H    7  S      Val( 1S)     0.77591       0.05947
   164    H    7  S      Ryd( 4S)     0.00043       1.99265
   165    H    7  S      Ryd( 3S)     0.00005       0.94299
   166    H    7  S      Ryd( 2S)     0.00003       0.51216
   167    H    7  px     Ryd( 2p)     0.00013       0.71906
   168    H    7  px     Ryd( 3p)     0.00017       2.68147
   169    H    7  px     Ryd( 4p)     0.00000       7.40517
   170    H    7  py     Ryd( 2p)     0.00094       1.20288
   171    H    7  py     Ryd( 3p)     0.00004       3.02868
   172    H    7  py     Ryd( 4p)     0.00001       8.06090
   173    H    7  pz     Ryd( 2p)     0.00100       1.26621
   174    H    7  pz     Ryd( 3p)     0.00011       3.13349
   175    H    7  pz     Ryd( 4p)     0.00001       8.20013
 
   176    H    8  S      Val( 1S)     0.76050       0.05916
   177    H    8  S      Ryd( 4S)     0.00080       1.99521
   178    H    8  S      Ryd( 3S)     0.00006       0.98266
   179    H    8  S      Ryd( 2S)     0.00006       0.49063
   180    H    8  px     Ryd( 2p)     0.00031       0.59153
   181    H    8  px     Ryd( 3p)     0.00014       3.06135
   182    H    8  px     Ryd( 4p)     0.00001       7.18621
   183    H    8  py     Ryd( 2p)     0.00109       1.23187
   184    H    8  py     Ryd( 3p)     0.00009       3.35687
   185    H    8  py     Ryd( 4p)     0.00001       7.95454
   186    H    8  pz     Ryd( 2p)     0.00091       1.11319
   187    H    8  pz     Ryd( 3p)     0.00014       3.40424
   188    H    8  pz     Ryd( 4p)     0.00002       8.05274
 
   189    H    9  S      Val( 1S)     0.77591       0.05947
   190    H    9  S      Ryd( 4S)     0.00043       1.99265
   191    H    9  S      Ryd( 3S)     0.00005       0.94299
   192    H    9  S      Ryd( 2S)     0.00003       0.51216
   193    H    9  px     Ryd( 2p)     0.00013       0.71906
   194    H    9  px     Ryd( 3p)     0.00017       2.68147
   195    H    9  px     Ryd( 4p)     0.00000       7.40517
   196    H    9  py     Ryd( 2p)     0.00094       1.20288
   197    H    9  py     Ryd( 3p)     0.00004       3.02868
   198    H    9  py     Ryd( 4p)     0.00001       8.06090
   199    H    9  pz     Ryd( 2p)     0.00100       1.26621
   200    H    9  pz     Ryd( 3p)     0.00011       3.13349
   201    H    9  pz     Ryd( 4p)     0.00001       8.20013
 
   202    H   10  S      Val( 1S)     0.77958       0.05858
   203    H   10  S      Ryd( 4S)     0.00041       2.00892
   204    H   10  S      Ryd( 3S)     0.00005       0.99071
   205    H   10  S      Ryd( 2S)     0.00003       0.41699
   206    H   10  px     Ryd( 2p)     0.00008       0.75457
   207    H   10  px     Ryd( 3p)     0.00016       2.56769
   208    H   10  px     Ryd( 4p)     0.00000       7.48382
   209    H   10  py     Ryd( 2p)     0.00105       1.29987
   210    H   10  py     Ryd( 3p)     0.00014       3.14247
   211    H   10  py     Ryd( 4p)     0.00001       8.32149
   212    H   10  pz     Ryd( 2p)     0.00089       1.26742
   213    H   10  pz     Ryd( 3p)     0.00001       2.85918
   214    H   10  pz     Ryd( 4p)     0.00001       8.05594
 
   215    N   11  S      Cor( 1S)     1.99944     -14.42437
   216    N   11  S      Val( 2S)     1.10595      -0.55433
   217    N   11  S      Ryd( 4S)     0.00433       1.26448
   218    N   11  S      Ryd( 3S)     0.00036       0.91435
   219    N   11  S      Ryd( 5S)     0.00001      35.29890
   220    N   11  px     Val( 2p)     1.15246      -0.33490
   221    N   11  px     Ryd( 4p)     0.00137       0.65962
   222    N   11  px     Ryd( 3p)     0.00032       0.56007
   223    N   11  px     Ryd( 5p)     0.00004       3.64517
   224    N   11  py     Val( 2p)     1.20116      -0.31978
   225    N   11  py     Ryd( 4p)     0.01052       0.95279
   226    N   11  py     Ryd( 3p)     0.00114       0.69478
   227    N   11  py     Ryd( 5p)     0.00005       4.39765
   228    N   11  pz     Val( 2p)     0.99501      -0.28712
   229    N   11  pz     Ryd( 4p)     0.01696       1.09988
   230    N   11  pz     Ryd( 3p)     0.00015       0.59615
   231    N   11  pz     Ryd( 5p)     0.00005       4.53965
   232    N   11  dxy    Ryd( 3d)     0.00125       1.76793
   233    N   11  dxy    Ryd( 4d)     0.00000       4.44899
   234    N   11  dxz    Ryd( 3d)     0.00429       1.83770
   235    N   11  dxz    Ryd( 4d)     0.00002       4.40958
   236    N   11  dyz    Ryd( 3d)     0.00352       2.50559
   237    N   11  dyz    Ryd( 4d)     0.00017       5.11030
   238    N   11  dx2y2  Ryd( 3d)     0.00088       1.95944
   239    N   11  dx2y2  Ryd( 4d)     0.00012       4.69545
   240    N   11  dz2    Ryd( 3d)     0.00451       2.37231
   241    N   11  dz2    Ryd( 4d)     0.00008       4.87670
 
   242    O   12  S      Cor( 1S)     1.99980     -18.96514
   243    O   12  S      Val( 2S)     1.75480      -0.92489
   244    O   12  S      Ryd( 3S)     0.00189       1.38193
   245    O   12  S      Ryd( 4S)     0.00013       1.98010
   246    O   12  S      Ryd( 5S)     0.00000      49.34472
   247    O   12  px     Val( 2p)     1.46594      -0.30182
   248    O   12  px     Ryd( 3p)     0.00147       0.53815
   249    O   12  px     Ryd( 4p)     0.00019       0.84846
   250    O   12  px     Ryd( 5p)     0.00000       4.91508
   251    O   12  py     Val( 2p)     1.73726      -0.30702
   252    O   12  py     Ryd( 3p)     0.00230       0.70959
   253    O   12  py     Ryd( 4p)     0.00016       0.89504
   254    O   12  py     Ryd( 5p)     0.00002       5.18311
   255    O   12  pz     Val( 2p)     1.43423      -0.29055
   256    O   12  pz     Ryd( 3p)     0.00236       0.65975
   257    O   12  pz     Ryd( 4p)     0.00013       0.97480
   258    O   12  pz     Ryd( 5p)     0.00007       5.30439
   259    O   12  dxy    Ryd( 3d)     0.00122       1.64527
   260    O   12  dxy    Ryd( 4d)     0.00002       6.68900
   261    O   12  dxz    Ryd( 3d)     0.00250       1.79284
   262    O   12  dxz    Ryd( 4d)     0.00002       6.80825
   263    O   12  dyz    Ryd( 3d)     0.00349       2.07850
   264    O   12  dyz    Ryd( 4d)     0.00002       7.00184
   265    O   12  dx2y2  Ryd( 3d)     0.00090       1.73260
   266    O   12  dx2y2  Ryd( 4d)     0.00001       6.77256
   267    O   12  dz2    Ryd( 3d)     0.00399       2.06852
   268    O   12  dz2    Ryd( 4d)     0.00005       6.99577
 
   269    O   13  S      Cor( 1S)     1.99980     -18.96514
   270    O   13  S      Val( 2S)     1.75480      -0.92489
   271    O   13  S      Ryd( 3S)     0.00189       1.38193
   272    O   13  S      Ryd( 4S)     0.00013       1.98010
   273    O   13  S      Ryd( 5S)     0.00000      49.34472
   274    O   13  px     Val( 2p)     1.46594      -0.30182
   275    O   13  px     Ryd( 3p)     0.00147       0.53815
   276    O   13  px     Ryd( 4p)     0.00019       0.84846
   277    O   13  px     Ryd( 5p)     0.00000       4.91508
   278    O   13  py     Val( 2p)     1.73726      -0.30702
   279    O   13  py     Ryd( 3p)     0.00230       0.70959
   280    O   13  py     Ryd( 4p)     0.00016       0.89504
   281    O   13  py     Ryd( 5p)     0.00002       5.18311
   282    O   13  pz     Val( 2p)     1.43423      -0.29055
   283    O   13  pz     Ryd( 3p)     0.00236       0.65975
   284    O   13  pz     Ryd( 4p)     0.00013       0.97480
   285    O   13  pz     Ryd( 5p)     0.00007       5.30439
   286    O   13  dxy    Ryd( 3d)     0.00122       1.64527
   287    O   13  dxy    Ryd( 4d)     0.00002       6.68900
   288    O   13  dxz    Ryd( 3d)     0.00250       1.79284
   289    O   13  dxz    Ryd( 4d)     0.00002       6.80825
   290    O   13  dyz    Ryd( 3d)     0.00349       2.07850
   291    O   13  dyz    Ryd( 4d)     0.00002       7.00184
   292    O   13  dx2y2  Ryd( 3d)     0.00090       1.73260
   293    O   13  dx2y2  Ryd( 4d)     0.00001       6.77256
   294    O   13  dz2    Ryd( 3d)     0.00399       2.06852
   295    O   13  dz2    Ryd( 4d)     0.00005       6.99577
 
   296    H   14  S      Val( 1S)     0.76050       0.05916
   297    H   14  S      Ryd( 4S)     0.00080       1.99521
   298    H   14  S      Ryd( 3S)     0.00006       0.98266
   299    H   14  S      Ryd( 2S)     0.00006       0.49063
   300    H   14  px     Ryd( 2p)     0.00031       0.59153
   301    H   14  px     Ryd( 3p)     0.00014       3.06135
   302    H   14  px     Ryd( 4p)     0.00001       7.18621
   303    H   14  py     Ryd( 2p)     0.00109       1.23187
   304    H   14  py     Ryd( 3p)     0.00009       3.35687
   305    H   14  py     Ryd( 4p)     0.00001       7.95454
   306    H   14  pz     Ryd( 2p)     0.00091       1.11319
   307    H   14  pz     Ryd( 3p)     0.00014       3.40424
   308    H   14  pz     Ryd( 4p)     0.00002       8.05274

 WARNING:  1 low occupancy (<1.9990e) core orbital  found on  C    3

 WARNING:  Population inversion found on atom  C    1
           Population inversion found on atom  C    2
           Population inversion found on atom  C    3
           Population inversion found on atom  C    4
           Population inversion found on atom  C    5
           Population inversion found on atom  C    6
           Population inversion found on atom  H    7
           Population inversion found on atom  H    8
           Population inversion found on atom  H    9
           Population inversion found on atom  H   10
           Population inversion found on atom  N   11
           Population inversion found on atom  H   14


 Summary of Natural Population Analysis:                  
                                                          
                                       Natural Population 
                Natural  -----------------------------------------------
    Atom  No    Charge         Core      Valence    Rydberg      Total
 -----------------------------------------------------------------------
      C    1   -0.19264      1.99916     4.17507    0.01841     6.19264
      C    2   -0.16626      1.99907     4.14773    0.01947     6.16626
      C    3    0.06437      1.99876     3.91508    0.02179     5.93563
      C    4   -0.16626      1.99907     4.14773    0.01947     6.16626
      C    5   -0.19264      1.99916     4.17507    0.01841     6.19264
      C    6   -0.14809      1.99916     4.13062    0.01832     6.14809
      H    7    0.22115      0.00000     0.77591    0.00293     0.77885
      H    8    0.23587      0.00000     0.76050    0.00363     0.76413
      H    9    0.22115      0.00000     0.77591    0.00293     0.77885
      H   10    0.21758      0.00000     0.77958    0.00284     0.78242
      N   11    0.49585      1.99944     4.45458    0.05013     6.50415
      O   12   -0.41297      1.99980     6.39224    0.02094     8.41297
      O   13   -0.41297      1.99980     6.39224    0.02094     8.41297
      H   14    0.23587      0.00000     0.76050    0.00363     0.76413
 =======================================================================
   * Total *   -0.00000     17.99342    45.78275    0.22383    64.00000

                                 Natural Population      
 --------------------------------------------------------
   Core                      17.99342 ( 99.9635% of  18)
   Valence                   45.78275 ( 99.5277% of  46)
   Natural Minimal Basis     63.77617 ( 99.6503% of  64)
   Natural Rydberg Basis      0.22383 (  0.3497% of  64)
 --------------------------------------------------------

    Atom  No          Natural Electron Configuration
 ----------------------------------------------------------------------------
      C    1      [core]2S( 0.96)2p( 3.22)4p( 0.01)
      C    2      [core]2S( 0.96)2p( 3.19)4p( 0.01)
      C    3      [core]2S( 0.88)2p( 3.04)4p( 0.01)
      C    4      [core]2S( 0.96)2p( 3.19)4p( 0.01)
      C    5      [core]2S( 0.96)2p( 3.22)4p( 0.01)
      C    6      [core]2S( 0.96)2p( 3.17)4p( 0.01)
      H    7            1S( 0.78)
      H    8            1S( 0.76)
      H    9            1S( 0.78)
      H   10            1S( 0.78)
      N   11      [core]2S( 1.11)2p( 3.35)3d( 0.01)4p( 0.03)
      O   12      [core]2S( 1.75)2p( 4.64)3p( 0.01)3d( 0.01)
      O   13      [core]2S( 1.75)2p( 4.64)3p( 0.01)3d( 0.01)
      H   14            1S( 0.76)


 NATURAL BOND ORBITAL ANALYSIS:

                       Occupancies       Lewis Structure    Low   High
           Occ.    -------------------  -----------------   occ   occ
  Cycle   Thresh.   Lewis   Non-Lewis     CR  BD  3C  LP    (L)   (NL)   Dev
 =============================================================================
   1(1)    1.90    60.03731   3.96269      9  15   0   8     4      4    0.48
   2(2)    1.90    60.03731   3.96269      9  15   0   8     4      4    0.48
   3(1)    1.80    60.03731   3.96269      9  15   0   8     4      4    0.48
   4(2)    1.80    60.03731   3.96269      9  15   0   8     4      4    0.48
   5(1)    1.70    60.03731   3.96269      9  15   0   8     4      4    0.48
   6(2)    1.70    60.03731   3.96269      9  15   0   8     4      4    0.48
   7(1)    1.60    61.87736   2.12264      9  18   0   5     1      4    0.48
   8(2)    1.60    61.87736   2.12264      9  18   0   5     1      4    0.48
   9(1)    1.50    61.87736   2.12264      9  18   0   5     1      4    0.48
  10(2)    1.50    61.87736   2.12264      9  18   0   5     1      4    0.48
  11(1)    1.60    61.87736   2.12264      9  18   0   5     1      4    0.48
 -----------------------------------------------------------------------------

 Structure accepted: RESONANCE keyword permits strongly delocalized structure

 WARNING:  1 low occupancy (<1.9990e) core orbital  found on  C    3

 --------------------------------------------------------
   Core                     17.99343 ( 99.964% of  18)
   Valence Lewis            43.88393 ( 95.400% of  46)
  ==================       ============================
   Total Lewis              61.87736 ( 96.683% of  64)
  -----------------------------------------------------
   Valence non-Lewis         1.98653 (  3.104% of  64)
   Rydberg non-Lewis         0.13611 (  0.213% of  64)
  ==================       ============================
   Total non-Lewis           2.12264 (  3.317% of  64)
 --------------------------------------------------------


       (Occupancy)   Bond orbital/ Coefficients/ Hybrids
 ---------------------------------------------------------------------------------
     1. (1.97590) BD ( 1) C   1 - C   2  
                ( 49.32%)   0.7023* C   1 s( 34.88%)p 1.86( 65.02%)d 0.00(  0.10%)
                                            0.0001  0.5904 -0.0143 -0.0001  0.0006
                                           -0.0000 -0.0000 -0.0000  0.0000  0.8050
                                           -0.0173 -0.0072  0.0023 -0.0176  0.0391
                                           -0.0024  0.0020  0.0000  0.0000  0.0000
                                           -0.0000  0.0029  0.0002 -0.0301 -0.0016
                                           -0.0053 -0.0089
                ( 50.68%)   0.7119* C   2 s( 36.10%)p 1.77( 63.79%)d 0.00(  0.10%)
                                           -0.0001  0.6007 -0.0148  0.0005  0.0007
                                           -0.0000 -0.0000  0.0000 -0.0000 -0.7975
                                            0.0139  0.0067 -0.0005 -0.0117  0.0398
[...]
     1          4.05036936          0.00025482          4.47018314
     1         -0.00357142          0.00042809          6.80194627
     7         -0.00357142         -0.00029321         -3.21341390
     8          2.04218368         -0.00008907         -4.31173742
     8         -2.04932652         -0.00008395         -4.31173742
     1         -4.05062080         -0.00007659         -0.22287192

 Electric dipole moment (dipole orientation):
 (Debye = 10**-18 statcoulomb cm , SI units = C m)
                  (au)            (Debye)         (10**-30 SI)
   Tot        0.246236D+01      0.625870D+01      0.208768D+02
   x          0.000000D+00      0.000000D+00      0.000000D+00
   y          0.000000D+00      0.000000D+00      0.000000D+00
   z          0.246236D+01      0.625870D+01      0.208768D+02

 Dipole polarizability, Alpha (dipole orientation).
 (esu units = cm**3 , SI units = C**2 m**2 J**-1)
 Alpha(0;0):
               (au)            (10**-24 esu)      (10**-40 SI)
   iso        0.119831D+03      0.177571D+02      0.197575D+02
   aniso      0.885890D+02      0.131275D+02      0.146064D+02
   xx         0.134208D+03      0.198875D+02      0.221278D+02
   yx        -0.890649D-04     -0.131981D-04     -0.146848D-04
   yy         0.630344D+02      0.934074D+01      0.103930D+02
   zx         0.000000D+00      0.000000D+00      0.000000D+00
   zy         0.487316D-02      0.722128D-03      0.803476D-03
   zz         0.162251D+03      0.240431D+02      0.267516D+02

 First dipole hyperpolarizability, Beta (dipole orientation).
 ||, _|_  parallel and perpendicular components, (z) with respect to z axis,
 vector components x,y,z.  Values do not include the 1/n! factor of 1/2.
 (esu units = statvolt**-1 cm**4 , SI units = C**3 m**3 J**-2)
 Beta(0;0,0):
               (au)            (10**-30 esu)      (10**-50 SI)
   || (z)    -0.769283D+03     -0.664600D+01     -0.246660D+01
   _|_(z)    -0.256428D+03     -0.221533D+01     -0.822199D+00
   x          0.000000D+00      0.000000D+00      0.000000D+00
   y         -0.270482D+00     -0.233675D-02     -0.867263D-03
   z         -0.384641D+04     -0.332300D+02     -0.123330D+02
   ||         0.769283D+03      0.664600D+01      0.246660D+01
   xxx        0.000000D+00      0.000000D+00      0.000000D+00
   xxy       -0.203234D-02     -0.175578D-04     -0.651642D-05
   yxy        0.000000D+00      0.000000D+00      0.000000D+00
   yyy        0.556921D-02      0.481136D-04      0.178569D-04
   xxz        0.134824D+03      0.116477D+01      0.432294D+00
   yxz       -0.170613D-04     -0.147396D-06     -0.547047D-07
   yyz        0.121190D+03      0.104699D+01      0.388579D+00
   zxz        0.000000D+00      0.000000D+00      0.000000D+00
   zyz       -0.936976D-01     -0.809474D-03     -0.300428D-03
   zzz       -0.153815D+04     -0.132884D+02     -0.493187D+01

 ----------------------------------------------------------------------
 Unable to Open any file for archive entry.
 1\1\GINC-YARGEREPIC\Freq\RB3LYP\6-311++G(2d,3p)\C6H5N1O2\YARGER\09-Dec
 -2025\0\\#P Geom=AllCheck Guess=TCheck SCRF=Check GenChk RB3LYP/6-311+
 +G(2d,3p) Freq\\NitroBenzene\\0,1\C,-1.1967223019,-0.000003997,-1.8352
 394163\C,-1.2162325689,0.0000252325,-0.4475913242\C,-0.0037130575,0.00
 00460169,0.2334002253\C,1.2192962926,0.0000277875,-0.4285674367\C,1.22
 14648898,-0.0000014602,-1.8163509844\C,0.0177798213,-0.0000167956,-2.5
 18220682\H,-2.1286010124,-0.0000171961,-2.3822176892\H,2.1387299284,0.
 0000393452,0.1346479352\H,2.161774257,-0.0000126953,-2.3487056181\H,0.
 0262244312,-0.0000400099,-3.5993399286\N,-0.0151717661,0.0000670422,1.
 7003987779\O,1.0628225216,-0.0000713231,2.290044478\O,-1.1022453907,-0
 .0000735943,2.2731331578\H,-2.14435202,0.0000348521,0.1011928321\\Vers
 ion=ES64L-G16RevC.01\State=1-A'\HF=-436.8973097\RMSD=7.953e-10\RMSF=6.
 317e-05\ZeroPoint=0.102538\Thermal=0.1093892\ETot=-436.7879205\HTot=-4
 36.7869763\GTot=-436.8269125\Dipole=0.0192329,0.0001276,-2.4622884\Dip
 oleDeriv=0.0081028,0.0000042,0.2280596,0.0000095,-0.1552065,0.0000092,
 0.2668785,0.0000042,-0.2507485,-0.0909238,-0.0000006,0.2672016,0.00000
 55,-0.0793858,-0.0000386,-0.1712034,0.0000058,0.2505937,0.1423798,0.,0
 .0077306,0.0000004,0.0343116,-0.0000334,0.0077306,0.0000055,-0.8472643
 ,-0.089341,0.0000005,-0.2725124,-0.0000049,-0.0793858,-0.0000393,0.165
 8926,0.0000062,0.2490109,0.0157701,-0.0000039,-0.2238958,-0.0000092,-0
 .1552065,0.0000086,-0.2627147,0.0000036,-0.2584158,0.1605835,0.0000002
 ,-0.0002628,0.0000003,-0.1044228,0.0000007,-0.0002628,0.0000065,0.1942
 318,-0.0295137,-0.0000022,-0.0830227,-0.0000058,0.1671142,0.0000047,-0
 .0713199,-0.0000013,0.0434623,0.0641117,-0.0000029,-0.0348865,-0.00000
 1,0.1767004,-0.0000039,-0.0481116,-0.0000032,0.1271763,-0.0319065,0.00
 00018,0.0818453,0.0000053,0.1671142,0.000005,0.0701424,-0.0000011,0.04
 58552,0.10732,0.,0.0014832,0.,0.160459,-0.0000109,0.0014832,-0.0000045
 ,-0.0825602,2.2755852,0.0000021,-0.0039419,0.0000028,0.3114491,-0.0000
 911,-0.0039418,-0.0000047,2.7802089,-1.289452,-0.0000362,-0.4857131,0.
 000129,-0.3101208,0.0000969,-0.5461734,-0.0000078,-1.1980511,-1.305546
 9,0.0000343,0.4840338,-0.0001326,-0.3101208,0.0000959,0.544494,-0.0000
 061,-1.1819563,0.0628307,0.0000027,0.0338813,0.0000008,0.1767004,-0.00
 00039,0.0471063,-0.0000031,0.1284572\Polar=134.2092712,0.0000768,63.03
 44465,-0.2190352,-0.0002677,162.2494993\PolarDeriv=1.4888311,-0.000105
 9,-3.4025229,1.9753924,0.0000205,-18.653662,-0.0000861,-5.5279584,-0.0
 003128,-0.0000875,-3.8756907,-0.000014,-6.6094413,0.0003787,-2.5055401
 ,-4.1113534,0.0001081,18.8086517,-1.8926882,0.0000149,-2.0485714,1.566
 7089,-0.0001134,-18.2219856,-0.0002583,-5.6323775,0.0001305,0.0000492,
 1.1768016,0.0007667,7.368553,-0.0000238,3.0097665,3.5217954,0.0000603,
 -25.05946,0.0191657,-0.0000051,-0.0074136,-2.4902873,-0.0000083,-0.555
 7413,0.0002897,-0.0335943,-0.000111,0.0000113,4.3008853,-0.0020705,2.5
 353264,0.0000004,0.9491127,-0.5164862,0.0001491,66.1596825,1.7308066,0
 .0000005,2.0013059,1.3578103,0.0001131,18.6577625,-0.0002763,5.6133073
 ,0.0001583,-0.0000651,1.2646414,0.0008036,7.4986066,0.0000322,3.041399
 8,-2.9927346,0.0000557,-24.8731433,-1.4402795,-0.0001215,3.441247,1.60
 16273,-0.0000121,18.4124521,-0.0001154,5.5878263,-0.0002823,0.0000976,
 -3.7888654,0.0000278,-6.7549931,-0.000391,-2.4520831,3.737814,0.00011,
 19.220847,0.1021745,0.0003594,0.0335127,-4.167714,0.0000055,0.0378751,
 -0.0000958,0.0675756,-0.0002091,0.0000006,-8.6513829,0.0004317,-4.7454
 056,0.0000003,-4.2904516,0.0333625,0.0002596,-13.1843273,-11.8581257,-
 0.0001108,-1.2467737,-5.9587594,-0.0000255,-4.1237045,-0.0000815,0.028
 7209,0.0000208,-0.0000238,0.2084535,-0.0005178,-4.8431655,-0.000073,-0
 .7239394,-4.5477599,-0.0000754,-5.2833405,10.7876113,0.0001485,1.27739
 67,3.6464584,0.0000571,1.8806576,0.0004475,-0.102587,0.0001117,0.00017
 81,0.1144696,0.0003072,3.7057447,0.0001438,0.8138539,2.2446754,0.00005
 71,3.6342163,12.1187862,-0.0000896,1.2579303,-5.9054479,0.0000122,4.01
 92803,-0.0000568,-0.0319737,0.0000233,0.0000179,0.2079795,-0.0005086,-
 4.7966143,0.0000639,-0.7043751,4.4607107,-0.0000646,-5.0790035,0.04495
 66,-0.0000356,0.0111252,-2.2136279,-0.0000004,0.1144995,-0.0000667,-0.
 0032697,-0.0000468,-0.0000026,0.4185893,-0.000089,-1.3299279,0.0000024
 ,-1.4243068,0.1214021,-0.0003333,-19.0844024,0.2443214,0.0009372,-0.03
 46256,-12.9684579,-0.0000121,0.4234417,0.0035474,-0.003282,0.0027329,-
 0.0000989,0.4202092,0.0144121,-5.3482106,-0.0000084,4.4328157,0.482963
 5,0.0006963,-80.1419675,13.2807391,-0.0005454,0.8064162,9.7385487,-0.0
 007121,39.9888562,-0.0018196,5.1105893,-0.0011508,-0.0009627,4.0840911
 ,-0.0068973,4.8389559,-0.0003394,-0.4637559,7.7793039,-0.0005361,31.10
 96007,-13.6692986,-0.0005778,-0.7990735,10.2775856,0.0007243,-40.15535
 01,-0.0018578,-5.1737634,-0.0011741,0.0010547,4.0037601,-0.0069499,4.8
 754445,0.0003502,-0.4762964,-8.0262644,-0.0005361,30.2365997,-10.95699
 94,0.0001312,-1.289954,3.5401619,-0.0000485,-1.8243813,0.0004297,0.100
 7863,0.0001094,-0.0001687,0.1160581,0.0002979,3.6051273,-0.0001364,0.7
 938003,-2.1874286,0.0000494,3.5360469\HyperPolar=3.1583022,0.0090187,0
 .9465841,0.0132711,-134.7013071,0.000045,-121.1861935,-14.1193423,0.00
 14302,1537.9860236\Quadrupole=3.5356201,-0.6244752,-2.9111449,-0.00000
 12,0.0503587,0.0007075\PG=CS [SG(C2H1N1),X(C4H4O2)]\NImag=0\\0.7167354
 3,0.00000229,0.13524386,0.04381207,0.00001135,0.67871778,-0.13152616,0
 .00000121,0.03420755,0.72242514,-0.00000045,-0.06315969,-0.00000623,0.
 00000067,0.13615838,-0.03196152,-0.00000558,-0.33521861,-0.04890536,0.
 00001256,0.68964439,0.03279579,-0.00000182,-0.07252029,-0.28611946,-0.
 00000249,-0.04446920,0.74480281,-0.00000127,0.00423208,-0.00000061,-0.
 00000300,-0.06022100,-0.00000383,0.00000063,0.13687323,-0.02265130,-0.
 00000172,-0.03687201,-0.09904788,-0.00000330,-0.14591321,0.00169148,0.
 00000041,0.52826492,-0.01669117,0.00000082,0.03069160,-0.05536771,-0.0
 0000087,-0.02188614,-0.28832686,0.00000258,0.09682296,0.72088942,0.000
 00073,-0.00356190,-0.00000108,0.00000071,0.00682704,0.00000135,0.00000
 207,-0.06022100,-0.00000306,0.00000036,0.13615838,0.02660538,-0.000001
 12,-0.04736829,0.02011864,0.00000138,0.05776694,0.04224428,-0.00000369
 ,-0.14370581,0.04939350,0.00001266,0.69118011,-0.05683760,0.00000039,0
 .01996044,-0.01580373,-0.00000074,-0.02611225,0.03129229,0.00000133,0.
 02371622,-0.13154078,0.00000040,0.03514356,0.71809476,-0.00000055,0.00
 717688,0.00000155,-0.00000083,-0.00356190,-0.00000119,0.00000190,0.004
 23208,-0.00000164,-0.00000127,-0.06315969,-0.00000553,-0.00000125,0.13
 524386,-0.02187951,0.00000152,0.06599873,-0.03019847,-0.00000115,-0.04
 825574,0.07358522,-0.00000043,-0.03536851,-0.03102550,-0.00000629,-0.3
 3520399,-0.04319688,0.00001123,0.67735844,-0.27883661,0.00000026,0.048
 08682,0.03387326,0.00000172,0.07572564,-0.06365632,-0.00000006,-0.0004
 9133,0.03554290,-0.00000164,-0.07475236,-0.27629636,-0.00000067,-0.049
 61800,0.64906111,0.00000218,-0.06469545,-0.00000254,0.00000082,0.00599
 887,-0.00000039,-0.00000006,-0.00563249,0.00000010,-0.00000075,0.00599
 888,-0.00000056,-0.00000259,-0.06469545,-0.00000268,0.00000043,0.14234
 460,0.11297967,-0.00000211,-0.17828788,0.03211878,-0.00000082,-0.02675
 537,-0.00049134,0.00000014,-0.00075691,-0.03114550,-0.00000092,-0.0284
 2501,-0.11451085,-0.00000236,-0.18082813,-0.00071936,0.00001258,0.7411
 5115,-0.26900231,-0.00000309,-0.12293683,0.00502425,0.00000003,0.00243
 940,0.00141517,0.00000003,0.00051860,0.00002496,0.,0.00091048,-0.00298
 445,0.00000007,0.00359686,-0.01837114,-0.00000044,-0.01542809,0.282661
 99,-0.00000313,-0.03787348,-0.00000199,-0.00000067,0.00336061,-0.00000
 037,-0.00000011,0.00759988,-0.00000024,0.00000004,-0.00119793,0.000000
 01,0.00000007,0.00707315,-0.00000022,0.00000038,0.00363464,0.00000011,
 0.00000334,0.02605997,-0.12253240,-0.00000202,-0.13142759,-0.02833833,
 -0.00000047,-0.01279243,0.00180573,-0.00000040,-0.00446758,0.00063289,
 0.,-0.00071721,0.00306267,-0.00000013,-0.00103136,0.01536061,0.0000002
 2,0.01226427,0.13144896,0.00000252,0.13632136,0.00036739,0.00000001,0.
 00055269,-0.00270548,0.00000016,0.00396927,-0.01875651,-0.00000040,-0.
 01489176,-0.27190689,-0.00000265,-0.12611674,0.00663011,0.00000010,0.0
 0220648,0.00119585,0.00000005,0.00116522,-0.00000399,0.,-0.00009917,0.
 28371923,0.00000003,-0.00140212,-0.00000012,0.00000013,0.00529232,-0.0
 0000013,-0.00000023,0.00424746,0.00000084,-0.00000184,-0.03799782,-0.0
 0000249,-0.00000074,0.00500188,-0.00000012,-0.00000011,0.00775748,-0.0
 0000034,0.,-0.00078859,0.00000001,0.00000272,0.02537003,0.00062569,0.,
 -0.00078764,0.00321428,-0.00000014,-0.00165284,0.01225466,0.00000033,0
 .01275832,-0.12784199,-0.00000224,-0.13323973,-0.02673108,-0.00000046,
 -0.01015008,0.00115467,-0.00000026,-0.00493495,-0.00010161,0.00000002,
 0.00008327,0.13780287,0.00000252,0.13903662,-0.00287996,-0.00000009,-0
 .00362574,0.00004888,0.,-0.00089851,0.00145004,-0.00000004,-0.00042615
 ,0.00461539,-0.00000002,-0.00216744,-0.27280276,0.00000263,0.12072813,
 -0.01836472,0.00000039,0.01494958,-0.00090300,0.00000001,0.00075816,0.
 00065783,0.00000003,0.00032258,0.28673252,-0.00000008,0.00707315,-0.00
 000023,-0.00000004,-0.00119793,0.00000001,0.00000010,0.00759988,-0.000
 00024,0.00000068,0.00336061,-0.00000036,0.00000266,-0.03787348,-0.0000
 0169,-0.00000043,0.00363464,0.00000014,-0.00000001,-0.00000897,0.,-0.0
 0000004,-0.00439367,0.00000011,-0.00000283,0.02605997,-0.00309155,-0.0
 0000014,-0.00113585,-0.00062092,0.,-0.00074113,-0.00171328,-0.00000040
 ,-0.00450245,0.02861029,-0.00000041,-0.01238357,0.12032370,-0.00000172
 ,-0.12762714,-0.01583912,0.00000019,0.01225785,-0.00077864,0.,0.000407
 87,-0.00034055,0.00000014,0.00144257,-0.12909910,0.00000220,0.13225084
 ,0.00433806,0.00000058,0.02856608,-0.00444226,0.00000004,0.00253339,-0
 .00157751,0.,-0.00001817,-0.00435918,-0.00000007,-0.00260832,0.0047501
 6,-0.00000057,-0.02833003,-0.06073726,0.00000003,0.00217904,0.00114388
 ,0.,-0.00064813,0.00018471,-0.00000004,-0.00120692,0.00113538,0.000000
 01,0.00065305,0.05913842,-0.00000024,0.00478277,-0.00000007,-0.0000001
 0,0.00725902,-0.00000034,0.,-0.00011649,0.00000018,0.00000008,0.007259
 02,-0.00000034,0.00000024,0.00478277,-0.00000013,0.00000003,-0.0407074
 0,-0.00000642,0.00000003,-0.00387564,0.00000008,0.,-0.00032154,0.00000
 004,-0.00000002,-0.00387564,0.00000008,-0.00000002,0.02639644,-0.00195
 224,-0.00000035,-0.01035909,0.00270943,-0.00000014,0.00043653,-0.00001
 817,0.,0.00074815,-0.00278435,-0.00000015,0.00035345,0.00218829,-0.000
 00036,-0.01077119,0.00217904,-0.00000631,-0.33969094,0.00010852,0.0000
 0010,0.00082104,0.00026234,0.,-0.00049118,-0.00010360,0.00000010,0.000
 82955,-0.00234126,0.00000706,0.35885883,-0.00598359,-0.00000057,-0.005
 56068,0.01336512,-0.00000156,-0.02541890,-0.11036264,0.00000004,-0.000
 03302,0.01260128,0.00000160,0.02626930,-0.00619477,0.00000052,0.005285
 16,-0.00532528,0.,-0.00004171,0.00032225,0.00000012,-0.00159686,-0.002
 99280,0.00000005,-0.00048705,0.00031129,-0.00000012,0.00159547,-0.0002
 8333,0.,-0.00000421,0.85572884,-0.00000081,0.00952470,-0.00000059,0.00
 000132,-0.00357991,-0.00000051,-0.00000011,-0.08254493,0.00001021,-0.0
 0000128,-0.00357991,-0.00000047,0.00000078,0.00952470,-0.00000056,0.,-
 0.00183216,0.00000072,0.00000007,0.00090189,-0.00000024,0.00000016,-0.
 00428738,0.00000025,-0.00000007,0.00090189,-0.00000023,0.,-0.00161835,
 0.,0.00000108,0.23768136,-0.00823133,0.00000086,0.01143979,-0.02262331
 ,0.00000018,-0.04183056,-0.00003301,-0.00000900,-0.10613689,0.02347369
 ,0.00000025,-0.04106672,0.00795583,0.00000089,0.01165096,-0.00004172,-
 0.00000008,0.00001563,0.00089442,-0.00000005,0.00040022,-0.00299627,-0
 .00000045,0.00002805,-0.00089581,-0.00000005,0.00041117,-0.00000421,-0
 .00000007,0.00025567,0.00183357,-0.00005498,0.62100052,0.00143222,-0.0
 0000033,-0.00247210,0.00446431,0.00000036,0.00094336,-0.01140918,0.000
 00560,-0.03641505,-0.00750291,-0.00000095,0.00976581,-0.00007405,-0.00
 000042,-0.00318245,0.00035024,0.00000009,0.00089637,-0.00007256,-0.000
 00002,-0.00035912,0.00322107,0.00000010,0.00110326,0.00008570,0.000000
 06,-0.00017139,0.00027023,0.00000002,-0.00002383,-0.37161555,0.0000291
 9,-0.16032973,0.51233577,0.00000051,-0.00135025,0.00000016,-0.00000093
 ,0.00358451,0.00000098,0.00000379,0.01985193,-0.00000122,0.00000068,0.
 00123749,-0.00000033,-0.00000004,-0.00099241,0.00000049,-0.00000017,0.
 00021817,-0.00000020,-0.00000003,-0.00050022,0.00000019,-0.00000019,0.
 00040471,-0.00000003,0.,0.00000835,0.00000010,-0.00000002,0.00017828,0
 .00000003,0.00003623,-0.07840226,0.00003159,-0.00003664,0.02813412,-0.
 00067408,-0.00000045,-0.00445866,0.00879634,0.00000024,-0.00314595,-0.
 04948443,0.00000858,-0.03909413,-0.00303738,-0.00000018,-0.00212865,-0
 .00195761,0.00000015,-0.00055814,-0.00193864,0.,-0.00052827,-0.0000691
 2,-0.00000004,-0.00105018,-0.00080493,0.00000009,-0.00336820,0.0002734
 2,0.00000002,-0.00025283,-0.00005177,-0.00000005,-0.00025794,-0.156155
 36,0.00002314,-0.23057918,0.19868996,-0.00002876,0.23535057,-0.0001544
 5,0.00000042,0.00318875,-0.00739651,0.00000094,-0.00984811,-0.01275761
 ,-0.00000580,0.03682650,0.00461458,-0.00000037,-0.00082212,0.00138164,
 0.00000034,0.00256334,0.00033375,-0.00000009,-0.00088290,0.00008722,-0
 .00000006,0.00017670,0.00113690,-0.00000013,-0.00089362,-0.00007949,0.
 00000002,0.00037429,0.00026892,-0.00000001,0.00003206,-0.37652435,-0.0
 0003017,0.15804964,-0.13260962,-0.00000311,0.00650247,0.51847490,0.000
 00003,-0.00099241,0.00000050,-0.00000069,0.00123749,-0.00000036,-0.000
 00384,0.01985193,-0.00000120,0.00000091,0.00358451,0.00000099,-0.00000
 051,-0.00135025,0.00000015,0.00000018,0.00021817,-0.00000020,0.,0.0000
 0835,0.00000010,0.00000009,0.00029045,-0.00000011,0.00000003,-0.000500
 22,0.00000019,0.00000002,0.00017828,0.00000003,-0.00003734,-0.07840226
 ,0.00003135,0.00000281,0.02733713,-0.00000281,0.00003811,0.02813412,0.
 00196392,0.00000016,-0.00047774,0.00295508,-0.00000016,-0.00223505,0.0
 4989588,0.00000860,-0.03774570,-0.00867510,0.00000022,-0.00329622,0.00
 076532,-0.00000045,-0.00440808,0.00195211,0.,-0.00051177,-0.00026810,0
 .00000002,-0.00025434,0.00009607,0.00000008,0.00066269,0.00008428,-0.0
 0000004,-0.00104325,0.00006001,-0.00000005,-0.00025663,0.15387527,0.00
 002300,-0.22567038,-0.00934593,-0.00000288,0.04939628,-0.19426673,-0.0
 0002858,0.22921144,0.00624297,-0.00000009,-0.00195037,-0.27583966,0.00
 000219,0.12388891,-0.01879001,0.00000034,0.01439888,-0.00259302,-0.000
 00018,-0.00398396,0.00038551,0.,-0.00053436,0.00123059,-0.00000006,-0.
 00106889,0.00065774,0.00000005,0.00032829,-0.00074743,0.00000002,0.000
 78427,-0.00000710,0.,0.00009776,0.00016979,0.,-0.00025201,-0.00304647,
 -0.00000016,0.00294824,0.00112433,-0.00000008,-0.00008886,0.00322412,0
 .00000019,0.00090792,0.28798865,0.00000075,0.00500188,-0.00000011,0.00
 000138,-0.03799782,-0.00000221,0.00000017,0.00424746,0.00000088,-0.000
 00015,0.00529232,-0.00000014,-0.00000002,-0.00140212,-0.00000012,0.000
 00010,0.00775748,-0.00000034,-0.00000002,-0.00439367,0.00000014,-0.000
 00002,0.00082678,-0.00000003,0.,-0.00078859,0.00000001,0.00000004,-0.0
 0032154,0.,-0.00000004,-0.00428737,-0.00000044,0.00000013,0.00029045,0
 .00000008,-0.00000009,0.00040471,0.00000009,-0.00000221,0.02537003,0.0
 2698719,-0.00000041,-0.00976294,0.12561417,-0.00000193,-0.12930695,-0.
 01274753,0.00000031,0.01279181,-0.00322897,-0.00000015,-0.00176530,-0.
 00060736,0.,-0.00080577,-0.00105834,-0.00000027,-0.00496969,-0.0003348
 5,0.00000011,0.00144265,-0.00080552,-0.00000003,0.00061311,0.00010020,
 0.00000002,0.00008638,0.00121724,0.00000004,-0.00047626,0.00043901,0.0
 0000025,0.00008172,0.00090084,-0.00000011,0.00067527,-0.00100027,-0.00
 000003,-0.00337125,-0.13547580,0.00000219,0.13476720\\0.00003302,0.000
 00063,0.00013889,0.00007825,-0.00000193,-0.00011782,0.00000140,-0.0000
 0968,-0.00017899,-0.00007640,-0.00000193,-0.00011903,-0.00003519,0.000
 00063,0.00013835,-0.00000111,-0.00000008,0.00014255,-0.00000926,0.0000
 0019,0.00001931,0.00004525,-0.00000017,0.00001132,0.00000896,0.0000001
 9,0.00001945,0.,-0.00000011,0.00000021,-0.00000072,0.00004345,0.000092
 71,0.00005401,-0.00001551,-0.00007836,-0.00005278,-0.00001551,-0.00007
 920,-0.00004542,-0.00000017,0.00001062\\\@
 The archive entry for this job was punched.


 CHILDREN YOU ARE VERY LITTLE,
 AND YOUR BONES ARE VERY BRITTLE;
 IF YOU WOULD GROW GREAT AND STATELY
 YOU MUST TRY TO WALK SEDATELY.
 YOU MUST STILL BE BRIGHT AND QUIET,
 AND CONTENT WITH SIMPLE DIET;
 AND REMAIN, THROUGH ALL BEWILD'RING
 INNOCENT AND HONEST CHILDREN.
     -- A CHILD'S GARDEN OF VERSE,
        ROBERT LOUIS STEVENSON
 Job cpu time:       0 days  3 hours 45 minutes 41.0 seconds.
 Elapsed time:       0 days  0 hours 18 minutes 49.6 seconds.
 File lengths (MBytes):  RWF=    132 Int=      0 D2E=      0 Chk=     13 Scr=      1
 Normal termination of Gaussian 16 at Tue Dec  9 20:17:59 2025.
