 Entering Gaussian System, Link 0=g16
 Input=NitroBenzene_DFT_B3LYP_6311pp2d3p_Scan_NO2_NBO_Hirshfeld.gjf
 Output=NitroBenzene_DFT_B3LYP_6311pp2d3p_Scan_NO2_NBO_Hirshfeld.log
 Initial command:
 /opt/g16/l1.exe "/home/yarger/scratches/g16/Gau-1281485.inp" -scrdir="/home/yarger/scratches/g16/"
 Entering Link 1 = /opt/g16/l1.exe PID=   1281488.
  
 Copyright (c) 1988-2019, Gaussian, Inc.  All Rights Reserved.
  
 This is part of the Gaussian(R) 16 program.  It is based on
 the Gaussian(R) 09 system (copyright 2009, Gaussian, Inc.),
 the Gaussian(R) 03 system (copyright 2003, Gaussian, Inc.),
 the Gaussian(R) 98 system (copyright 1998, Gaussian, Inc.),
 the Gaussian(R) 94 system (copyright 1995, Gaussian, Inc.),
 the Gaussian 92(TM) system (copyright 1992, Gaussian, Inc.),
 the Gaussian 90(TM) system (copyright 1990, Gaussian, Inc.),
 the Gaussian 88(TM) system (copyright 1988, Gaussian, Inc.),
 the Gaussian 86(TM) system (copyright 1986, Carnegie Mellon
 University), and the Gaussian 82(TM) system (copyright 1983,
 Carnegie Mellon University). Gaussian is a federally registered
 trademark of Gaussian, Inc.
  
 This software contains proprietary and confidential information,
 including trade secrets, belonging to Gaussian, Inc.
  
 This software is provided under written license and may be
 used, copied, transmitted, or stored only in accord with that
 written license.
  
 The following legend is applicable only to US Government
 contracts under FAR:
  
                    RESTRICTED RIGHTS LEGEND
  
 Use, reproduction and disclosure by the US Government is
 subject to restrictions as set forth in subparagraphs (a)
 and (c) of the Commercial Computer Software - Restricted
 Rights clause in FAR 52.227-19.
  
 Gaussian, Inc.
 340 Quinnipiac St., Bldg. 40, Wallingford CT 06492
  
  
 ---------------------------------------------------------------
 Warning -- This program may not be used in any manner that
 competes with the business of Gaussian, Inc. or will provide
 assistance to any competitor of Gaussian, Inc.  The licensee
 of this program is prohibited from giving any competitor of
 Gaussian, Inc. access to this program.  By using this program,
 the user acknowledges that Gaussian, Inc. is engaged in the
 business of creating and licensing software in the field of
 computational chemistry and represents and warrants to the
 licensee that it is not a competitor of Gaussian, Inc. and that
 it will not use this program in any manner prohibited above.
 ---------------------------------------------------------------
  

 Cite this work as:
 Gaussian 16, Revision C.01,
 M. J. Frisch, G. W. Trucks, H. B. Schlegel, G. E. Scuseria, 
 M. A. Robb, J. R. Cheeseman, G. Scalmani, V. Barone, 
 G. A. Petersson, H. Nakatsuji, X. Li, M. Caricato, A. V. Marenich, 
 J. Bloino, B. G. Janesko, R. Gomperts, B. Mennucci, H. P. Hratchian, 
 J. V. Ortiz, A. F. Izmaylov, J. L. Sonnenberg, D. Williams-Young, 
 F. Ding, F. Lipparini, F. Egidi, J. Goings, B. Peng, A. Petrone, 
 T. Henderson, D. Ranasinghe, V. G. Zakrzewski, J. Gao, N. Rega, 
 G. Zheng, W. Liang, M. Hada, M. Ehara, K. Toyota, R. Fukuda, 
 J. Hasegawa, M. Ishida, T. Nakajima, Y. Honda, O. Kitao, H. Nakai, 
 T. Vreven, K. Throssell, J. A. Montgomery, Jr., J. E. Peralta, 
 F. Ogliaro, M. J. Bearpark, J. J. Heyd, E. N. Brothers, K. N. Kudin, 
 V. N. Staroverov, T. A. Keith, R. Kobayashi, J. Normand, 
 K. Raghavachari, A. P. Rendell, J. C. Burant, S. S. Iyengar, 
 J. Tomasi, M. Cossi, J. M. Millam, M. Klene, C. Adamo, R. Cammi, 
 J. W. Ochterski, R. L. Martin, K. Morokuma, O. Farkas, 
 J. B. Foresman, and D. J. Fox, Gaussian, Inc., Wallingford CT, 2019.
 
 ******************************************
 Gaussian 16:  ES64L-G16RevC.01  3-Jul-2019
                 9-Dec-2025 
 ******************************************
 %nprocshared=12
 Will use up to   12 processors via shared memory.
 %mem=12GB
 %chk=NitroBenzene_DFT_B3LYP_6311pp2d3p_Scan_NO2_NBO_Hirshfeld.chk
 ----------------------------------------------------------------------
 #p opt=modredundant b3lyp/6-311++g(2d,3p) guess=save pop=(hirshfeld,nb
 o,savenbos,savecm5) geom=connectivity
 ----------------------------------------------------------------------
 1/18=120,19=15,26=3,38=1,57=2/1,3;
 2/9=110,12=2,17=6,18=5,40=1/2;
 3/5=4,6=6,7=1512,11=2,25=1,30=1,71=1,74=-5/1,2,3;
 4//1;
 5/5=2,38=5/2;
 6/7=2,8=2,9=2,10=2,28=1,40=1,73=1,79=1/1,7;
 7//1,2,3,16;
 1/18=20,19=15,26=3/3(2);
 2/9=110/2;
 99/20=8/99;
 2/9=110/2;
 3/5=4,6=6,7=1512,11=2,25=1,30=1,71=1,74=-5/1,2,3;
 4/5=5,16=3,69=1/1;
 5/5=2,38=5/2;
 7//1,2,3,16;
 1/18=20,19=15,26=3/3(-5);
 2/9=110/2;
 6/7=2,8=2,9=2,10=2,19=2,28=1,40=1,73=1,79=1/1,7;
 99/9=1,20=8/99;
 Leave Link    1 at Tue Dec  9 19:43:40 2025, MaxMem=  1610612736 cpu:               0.3 elap:               0.0
 (Enter /opt/g16/l101.exe)
 ------------
 NitroBenzene
 ------------
 Symbolic Z-matrix:
 Charge =  0 Multiplicity = 1
 C                    -1.20109  0.        -1.8547 
 C                    -1.21203  0.        -0.45334 
 C                    -0.0039    0.        0.25682 
 C                     1.21519   0.       -0.43438 
 C                     1.22613  0.        -1.83574 
 C                     0.018    0.        -2.5459 
 H                    -2.12353  -0.00001  -2.39692 
 H                     2.13763   0.00001   0.10784 
 H                     2.15693  0.        -2.36349 
 H                     0.02635  0.        -3.61587 
 N                    -0.01538   0.        1.72677 
 O                     1.05155   0.00001   2.35392 
 O                    -1.09197   0.        2.33718 
 H                    -2.14283  0.         0.0744 
 
 The following ModRedundant input section has been read:
 D       2       3      11      13 S  36 5.0000                                
 
 ITRead=  0  0  0  0  0  0  0  0  0  0  0  0  0  0
 MicOpt= -1 -1 -1 -1 -1 -1 -1 -1 -1 -1 -1 -1 -1 -1
 NAtoms=     14 NQM=       14 NQMF=       0 NMMI=      0 NMMIF=      0
                NMic=       0 NMicF=      0.
                    Isotopes and Nuclear Properties:
 (Nuclear quadrupole moments (NQMom) in fm**2, nuclear magnetic moments (NMagM)
  in nuclear magnetons)

  Atom         1           2           3           4           5           6           7           8           9          10
 IAtWgt=          12          12          12          12          12          12           1           1           1           1
 AtmWgt=  12.0000000  12.0000000  12.0000000  12.0000000  12.0000000  12.0000000   1.0078250   1.0078250   1.0078250   1.0078250
 NucSpn=           0           0           0           0           0           0           1           1           1           1
 AtZEff=  -0.0000000  -0.0000000  -0.0000000  -0.0000000  -0.0000000  -0.0000000  -0.0000000  -0.0000000  -0.0000000  -0.0000000
 NQMom=    0.0000000   0.0000000   0.0000000   0.0000000   0.0000000   0.0000000   0.0000000   0.0000000   0.0000000   0.0000000
 NMagM=    0.0000000   0.0000000   0.0000000   0.0000000   0.0000000   0.0000000   2.7928460   2.7928460   2.7928460   2.7928460
 AtZNuc=   6.0000000   6.0000000   6.0000000   6.0000000   6.0000000   6.0000000   1.0000000   1.0000000   1.0000000   1.0000000

  Atom        11          12          13          14
 IAtWgt=          14          16          16           1
 AtmWgt=  14.0030740  15.9949146  15.9949146   1.0078250
 NucSpn=           2           0           0           1
 AtZEff=  -0.0000000  -0.0000000  -0.0000000  -0.0000000
 NQMom=    2.0440000   0.0000000   0.0000000   0.0000000
 NMagM=    0.4037610   0.0000000   0.0000000   2.7928460
 AtZNuc=   7.0000000   8.0000000   8.0000000   1.0000000
 Leave Link  101 at Tue Dec  9 19:43:40 2025, MaxMem=  1610612736 cpu:               5.4 elap:               0.5
 (Enter /opt/g16/l103.exe)

 GradGradGradGradGradGradGradGradGradGradGradGradGradGradGradGradGradGrad
 Berny optimization.
 Initialization pass.
                           ----------------------------
                           !    Initial Parameters    !
                           ! (Angstroms and Degrees)  !
 --------------------------                            --------------------------
 ! Name  Definition              Value          Derivative Info.                !
 --------------------------------------------------------------------------------
 ! R1    R(1,2)                  1.4014         estimate D2E/DX2                !
 ! R2    R(1,6)                  1.4014         estimate D2E/DX2                !
 ! R3    R(1,7)                  1.07           estimate D2E/DX2                !
 ! R4    R(2,3)                  1.4014         estimate D2E/DX2                !
 ! R5    R(2,14)                 1.07           estimate D2E/DX2                !
 ! R6    R(3,4)                  1.4014         estimate D2E/DX2                !
 ! R7    R(3,11)                 1.47           estimate D2E/DX2                !
 ! R8    R(4,5)                  1.4014         estimate D2E/DX2                !
 ! R9    R(4,8)                  1.07           estimate D2E/DX2                !
 ! R10   R(5,6)                  1.4014         estimate D2E/DX2                !
 ! R11   R(5,9)                  1.07           estimate D2E/DX2                !
 ! R12   R(6,10)                 1.07           estimate D2E/DX2                !
 ! R13   R(11,12)                1.2376         estimate D2E/DX2                !
 ! R14   R(11,13)                1.2376         estimate D2E/DX2                !
 ! A1    A(2,1,6)              120.0            estimate D2E/DX2                !
 ! A2    A(2,1,7)              120.0            estimate D2E/DX2                !
 ! A3    A(6,1,7)              120.0            estimate D2E/DX2                !
 ! A4    A(1,2,3)              120.0            estimate D2E/DX2                !
 ! A5    A(1,2,14)             120.0            estimate D2E/DX2                !
 ! A6    A(3,2,14)             120.0            estimate D2E/DX2                !
 ! A7    A(2,3,4)              120.0            estimate D2E/DX2                !
 ! A8    A(2,3,11)             120.0            estimate D2E/DX2                !
 ! A9    A(4,3,11)             120.0            estimate D2E/DX2                !
 ! A10   A(3,4,5)              120.0            estimate D2E/DX2                !
 ! A11   A(3,4,8)              120.0            estimate D2E/DX2                !
 ! A12   A(5,4,8)              120.0            estimate D2E/DX2                !
 ! A13   A(4,5,6)              120.0            estimate D2E/DX2                !
 ! A14   A(4,5,9)              120.0            estimate D2E/DX2                !
 ! A15   A(6,5,9)              120.0            estimate D2E/DX2                !
 ! A16   A(1,6,5)              120.0            estimate D2E/DX2                !
 ! A17   A(1,6,10)             120.0            estimate D2E/DX2                !
 ! A18   A(5,6,10)             120.0            estimate D2E/DX2                !
 ! A19   A(3,11,12)            120.0            estimate D2E/DX2                !
 ! A20   A(3,11,13)            120.0            estimate D2E/DX2                !
 ! A21   A(12,11,13)           120.0            estimate D2E/DX2                !
 ! D1    D(6,1,2,3)             -0.0002         estimate D2E/DX2                !
 ! D2    D(6,1,2,14)           179.9999         estimate D2E/DX2                !
 ! D3    D(7,1,2,3)            180.0            estimate D2E/DX2                !
 ! D4    D(7,1,2,14)             0.0            estimate D2E/DX2                !
 ! D5    D(2,1,6,5)              0.0001         estimate D2E/DX2                !
 ! D6    D(2,1,6,10)          -179.9998         estimate D2E/DX2                !
 ! D7    D(7,1,6,5)           -180.0            estimate D2E/DX2                !
 ! D8    D(7,1,6,10)             0.0001         estimate D2E/DX2                !
 ! D9    D(1,2,3,4)              0.0002         estimate D2E/DX2                !
 ! D10   D(1,2,3,11)          -180.0            estimate D2E/DX2                !
 ! D11   D(14,2,3,4)          -179.9999         estimate D2E/DX2                !
 ! D12   D(14,2,3,11)            0.0            estimate D2E/DX2                !
 ! D13   D(2,3,4,5)             -0.0001         estimate D2E/DX2                !
 ! D14   D(2,3,4,8)            179.9998         estimate D2E/DX2                !
 ! D15   D(11,3,4,5)           180.0            estimate D2E/DX2                !
 ! D16   D(11,3,4,8)             0.0            estimate D2E/DX2                !
 ! D17   D(2,3,11,12)         -179.9999         estimate D2E/DX2                !
 ! D18   D(2,3,11,13)            0.0            Scan                            !
 ! D19   D(4,3,11,12)            0.0            estimate D2E/DX2                !
 ! D20   D(4,3,11,13)          179.9999         estimate D2E/DX2                !
 ! D21   D(3,4,5,6)              0.0001         estimate D2E/DX2                !
 ! D22   D(3,4,5,9)           -180.0            estimate D2E/DX2                !
 ! D23   D(8,4,5,6)           -179.9999         estimate D2E/DX2                !
 ! D24   D(8,4,5,9)              0.0001         estimate D2E/DX2                !
 ! D25   D(4,5,6,1)             -0.0001         estimate D2E/DX2                !
 ! D26   D(4,5,6,10)           179.9998         estimate D2E/DX2                !
 ! D27   D(9,5,6,1)            179.9999         estimate D2E/DX2                !
 ! D28   D(9,5,6,10)            -0.0001         estimate D2E/DX2                !
 --------------------------------------------------------------------------------
 Trust Radius=3.00D-01 FncErr=1.00D-07 GrdErr=1.00D-06 EigMax=2.50D+02 EigMin=1.00D-04
 Number of optimizations in scan=  37
 Number of steps in this run=     73 maximum allowed number of steps=    100.
 GradGradGradGradGradGradGradGradGradGradGradGradGradGradGradGradGradGrad

 Leave Link  103 at Tue Dec  9 19:43:40 2025, MaxMem=  1610612736 cpu:               0.1 elap:               0.0
 (Enter /opt/g16/l202.exe)
                          Input orientation:                          
 ---------------------------------------------------------------------
 Center     Atomic      Atomic             Coordinates (Angstroms)
 Number     Number       Type             X           Y           Z
 ---------------------------------------------------------------------
      1          6           0       -1.201088   -0.000004   -1.854700
      2          6           0       -1.212034   -0.000001   -0.453343
      3          6           0       -0.003896    0.000001    0.256815
      4          6           0        1.215188    0.000002   -0.434384
      5          6           0        1.226134   -0.000001   -1.835741
      6          6           0        0.017996   -0.000003   -2.545899
      7          1           0       -2.123528   -0.000006   -2.396922
      8          1           0        2.137628    0.000005    0.107837
      9          1           0        2.156932   -0.000001   -2.363487
     10          1           0        0.026354   -0.000002   -3.615867
     11          7           0       -0.015378    0.000003    1.726770
     12          8           0        1.051549    0.000006    2.353923
     13          8           0       -1.091971    0.000004    2.337180
     14          1           0       -2.142832   -0.000000    0.074403
 ---------------------------------------------------------------------
                    Distance matrix (angstroms):
                    1          2          3          4          5
     1  C    0.000000
     2  C    1.401400   0.000000
     3  C    2.427296   1.401400   0.000000
     4  C    2.802800   2.427296   1.401400   0.000000
     5  C    2.427296   2.802800   2.427296   1.401400   0.000000
     6  C    1.401400   2.427296   2.802800   2.427296   1.401400
     7  H    1.070000   2.146700   3.396345   3.872800   3.396345
     8  H    3.872800   3.396345   2.146700   1.070000   2.146700
     9  H    3.396345   3.872800   3.396345   2.146700   1.070000
    10  H    2.146700   3.396345   3.872800   3.396345   2.146700
    11  N    3.772644   2.486942   1.470000   2.486942   3.772644
    12  O    4.773561   3.606182   2.347728   2.793105   4.193300
    13  O    4.193300   2.793105   2.347728   3.606182   4.773561
    14  H    2.146700   1.070000   2.146700   3.396345   3.872800
                    6          7          8          9         10
     6  C    0.000000
     7  H    2.146700   0.000000
     8  H    3.396345   4.942800   0.000000
     9  H    2.146700   4.280590   2.471400   0.000000
    10  H    1.070000   2.471400   4.280590   2.471400   0.000000
    11  N    4.272800   4.631321   2.693767   4.631321   5.342800
    12  O    5.007643   5.714161   2.494888   4.845186   6.057179
    13  O    5.007643   4.845186   3.924319   5.714161   6.057179
    14  H    3.396345   2.471400   4.280590   4.942800   4.280590
                   11         12         13         14
    11  N    0.000000
    12  O    1.237600   0.000000
    13  O    1.237600   2.143586   0.000000
    14  H    2.693766   3.924319   2.494888   0.000000
 Stoichiometry    C6H5NO2
 Framework group  CS[SG(C2HN),X(C4H4O2)]
 Deg. of freedom    20
 Full point group                 CS      NOp   2
 Largest Abelian subgroup         CS      NOp   2
 Largest concise Abelian subgroup CS      NOp   2
                         Standard orientation:                         
 ---------------------------------------------------------------------
 Center     Atomic      Atomic             Coordinates (Angstroms)
 Number     Number       Type             X           Y           Z
 ---------------------------------------------------------------------
      1          6           0       -0.000001   -1.848694   -1.213648
      2          6           0        0.000000   -0.447294   -1.213648
      3          6           0       -0.000001    0.253406    0.000000
      4          6           0        0.000000   -0.447294    1.213648
      5          6           0       -0.000001   -1.848694    1.213648
      6          6           0        0.000001   -2.549394   -0.000000
      7          1           0       -0.000000   -2.383694   -2.140295
      8          1           0        0.000002    0.087706    2.140295
      9          1           0       -0.000000   -2.383694    2.140295
     10          1           0        0.000003   -3.619394   -0.000000
     11          7           0       -0.000001    1.723406    0.000000
     12          8           0       -0.000000    2.342206    1.071793
     13          8           0       -0.000000    2.342206   -1.071793
     14          1           0        0.000002    0.087706   -2.140295
 ---------------------------------------------------------------------
 Rotational constants (GHZ):           4.0136192           1.2423034           0.9486694
 Leave Link  202 at Tue Dec  9 19:43:40 2025, MaxMem=  1610612736 cpu:               0.0 elap:               0.0
 (Enter /opt/g16/l301.exe)
 Standard basis: 6-311++G(2d,3p) (5D, 7F)
 Ernie: Thresh=  0.10000D-02 Tol=  0.10000D-05 Strict=F.
 There are   186 symmetry adapted cartesian basis functions of A'  symmetry.
 There are   140 symmetry adapted cartesian basis functions of A"  symmetry.
 There are   174 symmetry adapted basis functions of A'  symmetry.
 There are   134 symmetry adapted basis functions of A"  symmetry.
   308 basis functions,   453 primitive gaussians,   326 cartesian basis functions
    32 alpha electrons       32 beta electrons
       nuclear repulsion energy       409.3864397825 Hartrees.
 IExCor=  402 DFT=T Ex+Corr=B3LYP ExCW=0 ScaHFX=  0.200000
 ScaDFX=  0.800000  0.720000  1.000000  0.810000 ScalE2=  1.000000  1.000000
 IRadAn=      5 IRanWt=     -1 IRanGd=            0 ICorTp=0 IEmpDi=  4
 NAtoms=   14 NActive=   14 NUniq=    9 SFac= 2.42D+00 NAtFMM=   60 NAOKFM=F Big=F
 Integral buffers will be    131072 words long.
 Raffenetti 2 integral format.
 Two-electron integral symmetry is turned on.
 Leave Link  301 at Tue Dec  9 19:43:41 2025, MaxMem=  1610612736 cpu:               0.4 elap:               0.0
 (Enter /opt/g16/l302.exe)
 NPDir=0 NMtPBC=     1 NCelOv=     1 NCel=       1 NClECP=     1 NCelD=      1
         NCelK=      1 NCelE2=     1 NClLst=     1 CellRange=     0.0.
 One-electron integrals computed using PRISM.
 One-electron integral symmetry used in STVInt
 NBasis=   308 RedAO= T EigKep=  1.08D-06  NBF=   174   134
 NBsUse=   308 1.00D-06 EigRej= -1.00D+00 NBFU=   174   134
 Precomputing XC quadrature grid using
 IXCGrd= 4 IRadAn=           5 IRanWt=          -1 IRanGd=           0 AccXCQ= 0.00D+00.
 Generated NRdTot=       0 NPtTot=           0 NUsed=           0 NTot=          32
 NSgBfM=   326   326   326   326   326 MxSgAt=    14 MxSgA2=    14.
 Leave Link  302 at Tue Dec  9 19:43:41 2025, MaxMem=  1610612736 cpu:               1.7 elap:               0.1
 (Enter /opt/g16/l303.exe)
 DipDrv:  MaxL=1.
 Leave Link  303 at Tue Dec  9 19:43:41 2025, MaxMem=  1610612736 cpu:               0.4 elap:               0.0
 (Enter /opt/g16/l401.exe)
 ExpMin= 3.60D-02 ExpMax= 8.59D+03 ExpMxC= 1.30D+03 IAcc=3 IRadAn=         5 AccDes= 0.00D+00
 Harris functional with IExCor=  402 and IRadAn=       5 diagonalized for initial guess.
 HarFok:  IExCor=  402 AccDes= 0.00D+00 IRadAn=         5 IDoV= 1 UseB2=F ITyADJ=14
 ICtDFT=  3500011 ScaDFX=  1.000000  1.000000  1.000000  1.000000
 FoFCou: FMM=F IPFlag=           0 FMFlag=      100000 FMFlg1=           0
         NFxFlg=           0 DoJE=T BraDBF=F KetDBF=T FulRan=T
         wScrn=  0.000000 ICntrl=       500 IOpCl=  0 I1Cent=   200000004 NGrid=           0
         NMat0=    1 NMatS0=      1 NMatT0=    0 NMatD0=    1 NMtDS0=    0 NMtDT0=    0
 Petite list used in FoFCou.
 Harris En= -436.935836178744    
 JPrj=0 DoOrth=F DoCkMO=F.
 Initial guess orbital symmetries:
       Occupied  (A") (A') (A') (A') (A") (A') (A") (A') (A') (A')
                 (A") (A') (A') (A") (A') (A") (A') (A') (A") (A')
                 (A') (A") (A") (A') (A') (A") (A') (A") (A') (A")
                 (A') (A")
       Virtual   (A') (A") (A') (A') (A") (A') (A') (A') (A") (A')
                 (A') (A') (A') (A") (A') (A") (A') (A") (A') (A')
                 (A") (A") (A") (A") (A') (A') (A') (A") (A') (A')
                 (A") (A') (A') (A') (A') (A") (A') (A") (A') (A")
                 (A") (A') (A") (A') (A') (A") (A') (A") (A') (A")
                 (A') (A") (A') (A') (A') (A") (A") (A") (A') (A')
                 (A') (A') (A") (A') (A") (A") (A') (A") (A') (A')
                 (A") (A') (A') (A") (A") (A") (A') (A') (A") (A')
                 (A') (A") (A') (A") (A') (A') (A") (A') (A") (A")
                 (A') (A') (A') (A') (A") (A") (A') (A') (A") (A')
                 (A') (A") (A") (A') (A") (A') (A') (A') (A") (A')
                 (A') (A") (A") (A') (A") (A') (A') (A") (A") (A')
                 (A") (A') (A') (A") (A') (A') (A") (A") (A') (A')
                 (A") (A") (A') (A') (A") (A") (A") (A') (A") (A")
                 (A') (A') (A') (A") (A') (A") (A') (A') (A") (A')
                 (A") (A') (A") (A") (A') (A') (A") (A') (A") (A')
                 (A") (A') (A') (A') (A") (A") (A') (A') (A") (A')
                 (A') (A') (A') (A") (A") (A') (A') (A") (A") (A')
                 (A") (A") (A') (A") (A") (A') (A") (A') (A') (A')
                 (A") (A') (A") (A') (A') (A") (A") (A') (A") (A')
                 (A') (A') (A") (A') (A") (A") (A') (A') (A") (A')
                 (A") (A") (A') (A') (A") (A') (A') (A") (A') (A')
                 (A") (A") (A') (A') (A") (A") (A') (A') (A') (A")
                 (A") (A') (A") (A') (A") (A') (A') (A") (A") (A')
                 (A') (A") (A") (A') (A') (A") (A") (A') (A") (A')
                 (A') (A") (A') (A") (A') (A") (A") (A') (A') (A')
                 (A") (A') (A") (A') (A") (A") (A') (A') (A") (A')
                 (A') (A') (A") (A') (A') (A")
 The electronic state of the initial guess is 1-A'.
 Leave Link  401 at Tue Dec  9 19:43:41 2025, MaxMem=  1610612736 cpu:               3.0 elap:               0.2
 (Enter /opt/g16/l502.exe)
 Integral symmetry usage will be decided dynamically.
 Closed shell SCF:
 Using DIIS extrapolation, IDIIS=  1040.
 NGot=  1610612736 LenX=  1610392280 LenY=  1610285563
 Requested convergence on RMS density matrix=1.00D-08 within 128 cycles.
 Requested convergence on MAX density matrix=1.00D-06.
 Requested convergence on             energy=1.00D-06.
 No special actions if energy rises.
 Fock matrices will be formed incrementally for  20 cycles.

 Cycle   1  Pass 1  IDiag  1:
 FoFJK:  IHMeth= 1 ICntrl=       0 DoSepK=F KAlg= 0 I1Cent=           0 FoldK=F
 IRaf= 940000000 NMat=       1 IRICut=       1 DoRegI=T DoRafI=F ISym2E= 1 IDoP0=0 IntGTp=1.
 FoFCou: FMM=F IPFlag=           0 FMFlag=      100000 FMFlg1=           0
         NFxFlg=           0 DoJE=F BraDBF=F KetDBF=F FulRan=T
         wScrn=  0.000000 ICntrl=         0 IOpCl=  0 I1Cent=           0 NGrid=           0
         NMat0=    1 NMatS0=      1 NMatT0=    0 NMatD0=    1 NMtDS0=    0 NMtDT0=    0
 Petite list used in FoFCou.
 E= -436.590177214854    
 DIIS: error= 4.28D-02 at cycle   1 NSaved=   1.
 NSaved= 1 IEnMin= 1 EnMin= -436.590177214854     IErMin= 1 ErrMin= 4.28D-02
 ErrMax= 4.28D-02  0.00D+00 EMaxC= 1.00D-01 BMatC= 3.86D-01 BMatP= 3.86D-01
 IDIUse=3 WtCom= 5.72D-01 WtEn= 4.28D-01
 Coeff-Com:  0.100D+01
 Coeff-En:   0.100D+01
 Coeff:      0.100D+01
 Gap=     0.141 Goal=   None    Shift=    0.000
 GapD=    0.141 DampG=1.000 DampE=0.500 DampFc=0.5000 IDamp=-1.
 Damping current iteration by 5.00D-01
 RMSDP=8.59D-03 MaxDP=3.38D-01              OVMax= 3.74D-01

 Cycle   2  Pass 1  IDiag  1:
 RMSU=  4.26D-03    CP:  1.02D+00
 E= -436.637168864068     Delta-E=       -0.046991649214 Rises=F Damp=T
 DIIS: error= 1.89D-02 at cycle   2 NSaved=   2.
 NSaved= 2 IEnMin= 2 EnMin= -436.637168864068     IErMin= 2 ErrMin= 1.89D-02
 ErrMax= 1.89D-02  0.00D+00 EMaxC= 1.00D-01 BMatC= 8.68D-02 BMatP= 3.86D-01
 IDIUse=3 WtCom= 8.11D-01 WtEn= 1.89D-01
 Coeff-Com:  0.282D+00 0.718D+00
 Coeff-En:   0.429D+00 0.571D+00
 Coeff:      0.310D+00 0.690D+00
 Gap=     0.167 Goal=   None    Shift=    0.000
 RMSDP=2.89D-03 MaxDP=2.02D-01 DE=-4.70D-02 OVMax= 2.57D-01

 Cycle   3  Pass 1  IDiag  1:
 RMSU=  2.73D-03    CP:  1.04D+00  7.99D-01
 E= -436.870466110458     Delta-E=       -0.233297246390 Rises=F Damp=F
 DIIS: error= 8.51D-03 at cycle   3 NSaved=   3.
 NSaved= 3 IEnMin= 3 EnMin= -436.870466110458     IErMin= 3 ErrMin= 8.51D-03
 ErrMax= 8.51D-03  0.00D+00 EMaxC= 1.00D-01 BMatC= 1.54D-02 BMatP= 8.68D-02
 IDIUse=3 WtCom= 9.15D-01 WtEn= 8.51D-02
 Coeff-Com:  0.861D-01 0.296D+00 0.617D+00
 Coeff-En:   0.000D+00 0.000D+00 0.100D+01
 Coeff:      0.788D-01 0.271D+00 0.650D+00
 Gap=     0.184 Goal=   None    Shift=    0.000
 RMSDP=1.65D-03 MaxDP=1.08D-01 DE=-2.33D-01 OVMax= 6.01D-02

 Cycle   4  Pass 1  IDiag  1:
 RMSU=  1.20D-03    CP:  9.95D-01  7.48D-01  8.15D-01
 E= -436.879669075374     Delta-E=       -0.009202964915 Rises=F Damp=F
 DIIS: error= 7.12D-03 at cycle   4 NSaved=   4.
 NSaved= 4 IEnMin= 4 EnMin= -436.879669075374     IErMin= 4 ErrMin= 7.12D-03
 ErrMax= 7.12D-03  0.00D+00 EMaxC= 1.00D-01 BMatC= 6.09D-03 BMatP= 1.54D-02
 IDIUse=3 WtCom= 9.29D-01 WtEn= 7.12D-02
 Coeff-Com:  0.259D-01 0.747D-01 0.394D+00 0.505D+00
 Coeff-En:   0.000D+00 0.000D+00 0.313D+00 0.687D+00
 Coeff:      0.241D-01 0.693D-01 0.388D+00 0.518D+00
 Gap=     0.187 Goal=   None    Shift=    0.000
 RMSDP=4.78D-04 MaxDP=1.80D-02 DE=-9.20D-03 OVMax= 3.40D-02

 Cycle   5  Pass 1  IDiag  1:
 RMSU=  2.67D-04    CP:  9.93D-01  7.23D-01  7.67D-01  7.02D-01
 E= -436.885707234545     Delta-E=       -0.006038159171 Rises=F Damp=F
 DIIS: error= 1.83D-03 at cycle   5 NSaved=   5.
 NSaved= 5 IEnMin= 5 EnMin= -436.885707234545     IErMin= 5 ErrMin= 1.83D-03
 ErrMax= 1.83D-03  0.00D+00 EMaxC= 1.00D-01 BMatC= 3.78D-04 BMatP= 6.09D-03
 IDIUse=3 WtCom= 9.82D-01 WtEn= 1.83D-02
 Coeff-Com:  0.435D-02 0.677D-02 0.149D+00 0.281D+00 0.559D+00
 Coeff-En:   0.000D+00 0.000D+00 0.000D+00 0.000D+00 0.100D+01
 Coeff:      0.427D-02 0.665D-02 0.146D+00 0.276D+00 0.567D+00
 Gap=     0.180 Goal=   None    Shift=    0.000
 RMSDP=1.47D-04 MaxDP=8.27D-03 DE=-6.04D-03 OVMax= 9.25D-03

 Cycle   6  Pass 1  IDiag  1:
 RMSU=  9.11D-05    CP:  9.92D-01  7.11D-01  7.86D-01  7.61D-01  8.45D-01
 E= -436.886037888786     Delta-E=       -0.000330654241 Rises=F Damp=F
 DIIS: error= 5.90D-04 at cycle   6 NSaved=   6.
 NSaved= 6 IEnMin= 6 EnMin= -436.886037888786     IErMin= 6 ErrMin= 5.90D-04
 ErrMax= 5.90D-04  0.00D+00 EMaxC= 1.00D-01 BMatC= 3.92D-05 BMatP= 3.78D-04
 IDIUse=3 WtCom= 9.94D-01 WtEn= 5.90D-03
 Coeff-Com:  0.595D-03-0.123D-02 0.521D-01 0.113D+00 0.322D+00 0.514D+00
 Coeff-En:   0.000D+00 0.000D+00 0.000D+00 0.000D+00 0.534D-01 0.947D+00
 Coeff:      0.592D-03-0.122D-02 0.518D-01 0.113D+00 0.320D+00 0.516D+00
 Gap=     0.181 Goal=   None    Shift=    0.000
 RMSDP=5.42D-05 MaxDP=3.40D-03 DE=-3.31D-04 OVMax= 2.96D-03

 Cycle   7  Pass 1  IDiag  1:
 RMSU=  2.65D-05    CP:  9.93D-01  7.16D-01  7.87D-01  7.46D-01  8.19D-01
                    CP:  7.04D-01
 E= -436.886076240694     Delta-E=       -0.000038351908 Rises=F Damp=F
 DIIS: error= 1.26D-04 at cycle   7 NSaved=   7.
 NSaved= 7 IEnMin= 7 EnMin= -436.886076240694     IErMin= 7 ErrMin= 1.26D-04
 ErrMax= 1.26D-04  0.00D+00 EMaxC= 1.00D-01 BMatC= 2.68D-06 BMatP= 3.92D-05
 IDIUse=3 WtCom= 9.99D-01 WtEn= 1.26D-03
 Coeff-Com:  0.205D-04-0.139D-02 0.175D-01 0.432D-01 0.141D+00 0.282D+00
 Coeff-Com:  0.518D+00
 Coeff-En:   0.000D+00 0.000D+00 0.000D+00 0.000D+00 0.000D+00 0.000D+00
 Coeff-En:   0.100D+01
 Coeff:      0.205D-04-0.139D-02 0.175D-01 0.432D-01 0.141D+00 0.282D+00
 Coeff:      0.518D+00
 Gap=     0.180 Goal=   None    Shift=    0.000
 RMSDP=1.08D-05 MaxDP=6.61D-04 DE=-3.84D-05 OVMax= 9.28D-04

 Cycle   8  Pass 1  IDiag  1:
 RMSU=  8.62D-06    CP:  9.93D-01  7.17D-01  7.87D-01  7.44D-01  8.19D-01
                    CP:  6.90D-01  8.74D-01
 E= -436.886078693706     Delta-E=       -0.000002453012 Rises=F Damp=F
 DIIS: error= 2.22D-05 at cycle   8 NSaved=   8.
 NSaved= 8 IEnMin= 8 EnMin= -436.886078693706     IErMin= 8 ErrMin= 2.22D-05
 ErrMax= 2.22D-05  0.00D+00 EMaxC= 1.00D-01 BMatC= 9.57D-08 BMatP= 2.68D-06
 IDIUse=1 WtCom= 1.00D+00 WtEn= 0.00D+00
 Coeff-Com: -0.379D-04-0.403D-03 0.580D-03 0.313D-02 0.149D-01 0.372D-01
 Coeff-Com:  0.186D+00 0.758D+00
 Coeff:     -0.379D-04-0.403D-03 0.580D-03 0.313D-02 0.149D-01 0.372D-01
 Coeff:      0.186D+00 0.758D+00
 Gap=     0.180 Goal=   None    Shift=    0.000
 RMSDP=5.08D-06 MaxDP=2.71D-04 DE=-2.45D-06 OVMax= 1.86D-04

 Cycle   9  Pass 1  IDiag  1:
 RMSU=  2.81D-06    CP:  9.93D-01  7.17D-01  7.88D-01  7.46D-01  8.17D-01
                    CP:  7.03D-01  8.40D-01  7.36D-01
 E= -436.886078786848     Delta-E=       -0.000000093142 Rises=F Damp=F
 DIIS: error= 4.76D-06 at cycle   9 NSaved=   9.
 NSaved= 9 IEnMin= 9 EnMin= -436.886078786848     IErMin= 9 ErrMin= 4.76D-06
 ErrMax= 4.76D-06  0.00D+00 EMaxC= 1.00D-01 BMatC= 5.27D-09 BMatP= 9.57D-08
 IDIUse=1 WtCom= 1.00D+00 WtEn= 0.00D+00
 Coeff-Com:  0.289D-05-0.124D-03-0.160D-03 0.283D-04 0.159D-02 0.657D-02
 Coeff-Com:  0.490D-01 0.274D+00 0.670D+00
 Coeff:      0.289D-05-0.124D-03-0.160D-03 0.283D-04 0.159D-02 0.657D-02
 Coeff:      0.490D-01 0.274D+00 0.670D+00
 Gap=     0.180 Goal=   None    Shift=    0.000
 RMSDP=7.40D-07 MaxDP=3.01D-05 DE=-9.31D-08 OVMax= 3.93D-05

 Cycle  10  Pass 1  IDiag  1:
 RMSU=  3.48D-07    CP:  9.93D-01  7.17D-01  7.88D-01  7.46D-01  8.17D-01
                    CP:  7.01D-01  8.44D-01  7.76D-01  8.67D-01
 E= -436.886078790154     Delta-E=       -0.000000003306 Rises=F Damp=F
 DIIS: error= 2.95D-06 at cycle  10 NSaved=  10.
 NSaved=10 IEnMin=10 EnMin= -436.886078790154     IErMin=10 ErrMin= 2.95D-06
 ErrMax= 2.95D-06  0.00D+00 EMaxC= 1.00D-01 BMatC= 1.49D-09 BMatP= 5.27D-09
 IDIUse=1 WtCom= 1.00D+00 WtEn= 0.00D+00
 Coeff-Com:  0.104D-04-0.320D-04-0.150D-03-0.376D-03-0.943D-03-0.347D-03
 Coeff-Com:  0.525D-02 0.657D-01 0.384D+00 0.547D+00
 Coeff:      0.104D-04-0.320D-04-0.150D-03-0.376D-03-0.943D-03-0.347D-03
 Coeff:      0.525D-02 0.657D-01 0.384D+00 0.547D+00
 Gap=     0.180 Goal=   None    Shift=    0.000
 RMSDP=1.80D-07 MaxDP=9.37D-06 DE=-3.31D-09 OVMax= 1.02D-05

 Cycle  11  Pass 1  IDiag  1:
 RMSU=  1.12D-07    CP:  9.93D-01  7.17D-01  7.88D-01  7.45D-01  8.17D-01
                    CP:  7.01D-01  8.46D-01  7.86D-01  8.57D-01  8.42D-01
 E= -436.886078791472     Delta-E=       -0.000000001317 Rises=F Damp=F
 DIIS: error= 2.74D-07 at cycle  11 NSaved=  11.
 NSaved=11 IEnMin=11 EnMin= -436.886078791472     IErMin=11 ErrMin= 2.74D-07
 ErrMax= 2.74D-07  0.00D+00 EMaxC= 1.00D-01 BMatC= 1.74D-11 BMatP= 1.49D-09
 IDIUse=1 WtCom= 1.00D+00 WtEn= 0.00D+00
 Coeff-Com:  0.312D-05-0.218D-05-0.205D-04-0.954D-04-0.340D-03-0.363D-03
 Coeff-Com: -0.195D-02-0.541D-02 0.336D-01 0.733D-01 0.901D+00
 Coeff:      0.312D-05-0.218D-05-0.205D-04-0.954D-04-0.340D-03-0.363D-03
 Coeff:     -0.195D-02-0.541D-02 0.336D-01 0.733D-01 0.901D+00
 Gap=     0.180 Goal=   None    Shift=    0.000
 RMSDP=9.71D-08 MaxDP=5.78D-06 DE=-1.32D-09 OVMax= 1.20D-06

 Cycle  12  Pass 1  IDiag  1:
 RMSU=  3.10D-08    CP:  9.93D-01  7.17D-01  7.88D-01  7.45D-01  8.17D-01
                    CP:  7.01D-01  8.46D-01  7.84D-01  8.74D-01  8.35D-01
                    CP:  9.48D-01
 E= -436.886078791489     Delta-E=       -0.000000000017 Rises=F Damp=F
 DIIS: error= 5.00D-08 at cycle  12 NSaved=  12.
 NSaved=12 IEnMin=12 EnMin= -436.886078791489     IErMin=12 ErrMin= 5.00D-08
 ErrMax= 5.00D-08  0.00D+00 EMaxC= 1.00D-01 BMatC= 3.61D-13 BMatP= 1.74D-11
 IDIUse=1 WtCom= 1.00D+00 WtEn= 0.00D+00
 Coeff-Com:  0.303D-06 0.353D-06 0.387D-06-0.479D-05-0.298D-04-0.435D-04
 Coeff-Com: -0.367D-03-0.258D-02-0.607D-02-0.114D-01 0.137D+00 0.884D+00
 Coeff:      0.303D-06 0.353D-06 0.387D-06-0.479D-05-0.298D-04-0.435D-04
 Coeff:     -0.367D-03-0.258D-02-0.607D-02-0.114D-01 0.137D+00 0.884D+00
 Gap=     0.180 Goal=   None    Shift=    0.000
 RMSDP=2.15D-08 MaxDP=1.15D-06 DE=-1.72D-11 OVMax= 2.08D-07

 Cycle  13  Pass 1  IDiag  1:
 RMSU=  6.49D-09    CP:  9.93D-01  7.17D-01  7.88D-01  7.45D-01  8.17D-01
                    CP:  7.01D-01  8.46D-01  7.84D-01  8.71D-01  8.46D-01
                    CP:  1.00D+00  8.60D-01
 E= -436.886078791489     Delta-E=        0.000000000000 Rises=F Damp=F
 DIIS: error= 7.06D-09 at cycle  13 NSaved=  13.
 NSaved=13 IEnMin=12 EnMin= -436.886078791489     IErMin=13 ErrMin= 7.06D-09
 ErrMax= 7.06D-09  0.00D+00 EMaxC= 1.00D-01 BMatC= 1.50D-14 BMatP= 3.61D-13
 IDIUse=1 WtCom= 1.00D+00 WtEn= 0.00D+00
 Coeff-Com: -0.507D-08 0.134D-06 0.857D-06 0.240D-05 0.453D-05 0.584D-05
 Coeff-Com: -0.139D-04-0.343D-03-0.203D-02-0.575D-02 0.766D-02 0.206D+00
 Coeff-Com:  0.795D+00
 Coeff:     -0.507D-08 0.134D-06 0.857D-06 0.240D-05 0.453D-05 0.584D-05
 Coeff:     -0.139D-04-0.343D-03-0.203D-02-0.575D-02 0.766D-02 0.206D+00
 Coeff:      0.795D+00
 Gap=     0.180 Goal=   None    Shift=    0.000
 RMSDP=2.08D-09 MaxDP=1.12D-07 DE= 1.14D-13 OVMax= 5.49D-08

 SCF Done:  E(RB3LYP) =  -436.886078791     A.U. after   13 cycles
            NFock= 13  Conv=0.21D-08     -V/T= 2.0041
 KE= 4.350885949188D+02 PE=-1.838983012699D+03 EE= 5.576218992066D+02
 Leave Link  502 at Tue Dec  9 19:43:49 2025, MaxMem=  1610612736 cpu:              90.7 elap:               7.6
 (Enter /opt/g16/l601.exe)
 Copying SCF densities to generalized density rwf, IOpCl= 0 IROHF=0.

 **********************************************************************

            Population analysis using the SCF Density.

 **********************************************************************

 Orbital symmetries:
       Occupied  (A") (A') (A') (A') (A") (A') (A') (A") (A') (A')
                 (A") (A') (A') (A") (A') (A") (A') (A') (A') (A')
                 (A") (A") (A') (A") (A') (A') (A") (A') (A") (A")
                 (A') (A")
       Virtual   (A') (A") (A') (A') (A") (A') (A') (A") (A') (A')
                 (A') (A") (A') (A") (A') (A') (A") (A') (A') (A")
                 (A') (A') (A") (A") (A") (A') (A') (A') (A") (A')
                 (A') (A") (A') (A') (A') (A") (A') (A") (A") (A')
                 (A") (A") (A') (A') (A') (A') (A") (A") (A') (A")
                 (A') (A') (A') (A") (A") (A') (A") (A') (A') (A")
                 (A') (A") (A') (A") (A') (A') (A") (A') (A") (A')
                 (A") (A') (A') (A") (A") (A") (A') (A') (A") (A')
                 (A') (A') (A") (A') (A") (A') (A") (A') (A") (A")
                 (A') (A') (A') (A') (A') (A') (A") (A") (A') (A")
                 (A") (A') (A') (A") (A") (A') (A') (A') (A") (A')
                 (A') (A") (A") (A') (A") (A') (A") (A') (A") (A')
                 (A") (A') (A") (A') (A') (A') (A") (A") (A') (A')
                 (A") (A") (A') (A') (A") (A") (A") (A') (A") (A")
                 (A') (A') (A') (A") (A') (A') (A") (A') (A") (A')
                 (A") (A') (A") (A") (A') (A') (A") (A') (A") (A')
                 (A") (A') (A') (A') (A") (A") (A') (A") (A') (A')
                 (A') (A') (A") (A') (A") (A') (A') (A") (A') (A")
                 (A") (A") (A') (A") (A") (A") (A') (A') (A') (A')
                 (A") (A') (A") (A') (A') (A") (A") (A') (A") (A')
                 (A') (A') (A") (A') (A") (A") (A') (A') (A") (A')
                 (A") (A") (A') (A') (A') (A") (A') (A") (A') (A')
                 (A") (A") (A') (A') (A") (A") (A') (A') (A') (A")
                 (A") (A') (A") (A') (A') (A") (A') (A") (A") (A')
                 (A') (A") (A") (A') (A') (A") (A") (A') (A") (A')
                 (A') (A") (A') (A") (A') (A") (A") (A') (A') (A')
                 (A") (A') (A") (A') (A") (A") (A') (A') (A') (A")
                 (A') (A') (A") (A') (A') (A")
 The electronic state is 1-A'.
 Alpha  occ. eigenvalues --  -19.16331 -19.16329 -14.56033 -10.25702 -10.21697
 Alpha  occ. eigenvalues --  -10.21695 -10.21384 -10.21099 -10.21093  -1.23248
 Alpha  occ. eigenvalues --   -1.05199  -0.90333  -0.82408  -0.78614  -0.72009
 Alpha  occ. eigenvalues --   -0.64760  -0.61405  -0.57344  -0.54059  -0.52817
 Alpha  occ. eigenvalues --   -0.52491  -0.48451  -0.48391  -0.46131  -0.40569
 Alpha  occ. eigenvalues --   -0.40430  -0.38684  -0.32852  -0.32084  -0.29874
 Alpha  occ. eigenvalues --   -0.29846  -0.29160
 Alpha virt. eigenvalues --   -0.11136  -0.05023  -0.02324  -0.01735   0.00204
 Alpha virt. eigenvalues --    0.00887   0.03061   0.03179   0.04605   0.04710
 Alpha virt. eigenvalues --    0.07655   0.07656   0.08083   0.09113   0.09180
 Alpha virt. eigenvalues --    0.10251   0.10270   0.10577   0.11403   0.12121
 Alpha virt. eigenvalues --    0.12535   0.12872   0.13029   0.13396   0.13983
 Alpha virt. eigenvalues --    0.14357   0.15559   0.17501   0.17716   0.18321
 Alpha virt. eigenvalues --    0.18591   0.18718   0.19501   0.20176   0.21656
 Alpha virt. eigenvalues --    0.23563   0.23991   0.24875   0.25284   0.25347
 Alpha virt. eigenvalues --    0.25548   0.25934   0.26825   0.28098   0.28632
 Alpha virt. eigenvalues --    0.30269   0.30712   0.30917   0.32590   0.33188
 Alpha virt. eigenvalues --    0.33496   0.34635   0.34784   0.35811   0.38840
 Alpha virt. eigenvalues --    0.38960   0.39664   0.41840   0.42260   0.43282
 Alpha virt. eigenvalues --    0.43353   0.46264   0.46613   0.46906   0.47954
 Alpha virt. eigenvalues --    0.50193   0.50380   0.50831   0.53594   0.54728
 Alpha virt. eigenvalues --    0.55575   0.56728   0.57320   0.57673   0.60218
 Alpha virt. eigenvalues --    0.60846   0.61040   0.62109   0.63525   0.65546
 Alpha virt. eigenvalues --    0.66914   0.67023   0.68026   0.71834   0.72285
 Alpha virt. eigenvalues --    0.74446   0.74505   0.75513   0.75995   0.77266
 Alpha virt. eigenvalues --    0.77497   0.80248   0.82087   0.83766   0.86859
 Alpha virt. eigenvalues --    0.87196   0.87262   0.87512   0.89367   0.89784
 Alpha virt. eigenvalues --    0.90595   0.90919   0.93592   0.94575   0.95631
 Alpha virt. eigenvalues --    0.96599   0.98791   1.01427   1.03748   1.05548
 Alpha virt. eigenvalues --    1.05870   1.06484   1.07252   1.08055   1.11360
 Alpha virt. eigenvalues --    1.12440   1.14397   1.14725   1.17167   1.18126
 Alpha virt. eigenvalues --    1.18145   1.20246   1.20443   1.21077   1.26666
 Alpha virt. eigenvalues --    1.26777   1.26961   1.27755   1.28416   1.30845
 Alpha virt. eigenvalues --    1.31544   1.36390   1.39777   1.43314   1.44865
 Alpha virt. eigenvalues --    1.51073   1.53022   1.54249   1.58361   1.60526
 Alpha virt. eigenvalues --    1.62226   1.64857   1.67130   1.71132   1.71807
 Alpha virt. eigenvalues --    1.75066   1.76599   1.77171   1.79304   1.83563
 Alpha virt. eigenvalues --    1.85732   1.86770   1.90009   1.92936   1.93388
 Alpha virt. eigenvalues --    1.96444   2.05678   2.09432   2.11594   2.12982
 Alpha virt. eigenvalues --    2.23099   2.33551   2.36103   2.42984   2.44525
 Alpha virt. eigenvalues --    2.48632   2.52771   2.57106   2.58508   2.59086
 Alpha virt. eigenvalues --    2.70326   2.73234   2.74932   2.75505   2.79803
 Alpha virt. eigenvalues --    2.81171   2.81871   2.82072   2.83848   2.85332
 Alpha virt. eigenvalues --    2.85794   2.89494   2.97765   3.01126   3.04731
 Alpha virt. eigenvalues --    3.12530   3.13407   3.15551   3.24036   3.24209
 Alpha virt. eigenvalues --    3.31168   3.33568   3.35844   3.36306   3.36540
 Alpha virt. eigenvalues --    3.38477   3.40392   3.41353   3.41677   3.42998
 Alpha virt. eigenvalues --    3.46478   3.54280   3.55102   3.55607   3.56851
 Alpha virt. eigenvalues --    3.57596   3.57842   3.59571   3.61063   3.62362
 Alpha virt. eigenvalues --    3.70658   3.77439   3.78458   3.78543   3.80084
 Alpha virt. eigenvalues --    3.82469   3.83198   3.91528   3.95642   4.01899
 Alpha virt. eigenvalues --    4.05627   4.07922   4.09809   4.29814   4.42268
 Alpha virt. eigenvalues --    4.49392   4.56132   4.64108   4.76817   4.80515
 Alpha virt. eigenvalues --    4.81544   4.84642   4.99683   5.01695   5.05966
 Alpha virt. eigenvalues --    5.06113   5.10462   5.22802   5.47844   5.52644
 Alpha virt. eigenvalues --    5.98140   6.31727   6.73059   6.73494   6.80765
 Alpha virt. eigenvalues --    6.86144   6.91492   6.95101   7.07148   7.14352
 Alpha virt. eigenvalues --    7.25193   7.28402   8.19114   8.23915   8.29087
 Alpha virt. eigenvalues --    8.32939   8.40338   8.44478   8.51068   8.57919
 Alpha virt. eigenvalues --    8.59001   8.64286   8.69739   8.75771   8.78708
 Alpha virt. eigenvalues --    8.85048   8.95720  23.65446  23.96532  23.97163
 Alpha virt. eigenvalues --   24.06277  24.09768  24.13982  35.55037  49.92637
 Alpha virt. eigenvalues --   50.05971
          Condensed to atoms (all electrons):
               1          2          3          4          5          6
     1  C    6.661418  -0.230562  -0.002221  -1.026666   0.433027   0.054099
     2  C   -0.230562   7.838748  -0.797083  -1.053177  -1.026666   0.297411
     3  C   -0.002221  -0.797083   9.462791  -0.797083  -0.002221  -0.761121
     4  C   -1.026666  -1.053177  -0.797083   7.838748  -0.230562   0.297411
     5  C    0.433027  -1.026666  -0.002221  -0.230562   6.661418   0.054099
     6  C    0.054099   0.297411  -0.761121   0.297411   0.054099   5.782470
     7  H    0.416149  -0.021328  -0.042782   0.003320   0.027465  -0.082400
     8  H    0.014936   0.049789   0.015952   0.325838  -0.087554  -0.004498
     9  H    0.027465   0.003320  -0.042782  -0.021328   0.416149  -0.082400
    10  H   -0.034904   0.018211  -0.027364   0.018211  -0.034904   0.371661
    11  N   -0.022586  -0.063477   0.096791  -0.063477  -0.022586   0.038218
    12  O    0.020623   0.048724  -0.318366   0.097315   0.146845  -0.018636
    13  O    0.146845   0.097315  -0.318366   0.048724   0.020623  -0.018636
    14  H   -0.087554   0.325838   0.015952   0.049789   0.014936  -0.004498
               7          8          9         10         11         12
     1  C    0.416149   0.014936   0.027465  -0.034904  -0.022586   0.020623
     2  C   -0.021328   0.049789   0.003320   0.018211  -0.063477   0.048724
     3  C   -0.042782   0.015952  -0.042782  -0.027364   0.096791  -0.318366
     4  C    0.003320   0.325838  -0.021328   0.018211  -0.063477   0.097315
     5  C    0.027465  -0.087554   0.416149  -0.034904  -0.022586   0.146845
     6  C   -0.082400  -0.004498  -0.082400   0.371661   0.038218  -0.018636
     7  H    0.642466   0.001294   0.003222   0.000059  -0.000980   0.001194
     8  H    0.001294   0.612089  -0.000987   0.001426  -0.032921  -0.003922
     9  H    0.003222  -0.000987   0.642466   0.000059  -0.000980   0.004118
    10  H    0.000059   0.001426   0.000059   0.631223   0.001165  -0.000061
    11  N   -0.000980  -0.032921  -0.000980   0.001165   6.181432   0.428988
    12  O    0.001194  -0.003922   0.004118  -0.000061   0.428988   7.826021
    13  O    0.004118   0.000669   0.001194  -0.000061   0.428988  -0.076539
    14  H   -0.000987  -0.000564   0.001294   0.001426  -0.032921   0.000669
              13         14
     1  C    0.146845  -0.087554
     2  C    0.097315   0.325838
     3  C   -0.318366   0.015952
     4  C    0.048724   0.049789
     5  C    0.020623   0.014936
     6  C   -0.018636  -0.004498
     7  H    0.004118  -0.000987
     8  H    0.000669  -0.000564
     9  H    0.001194   0.001294
    10  H   -0.000061   0.001426
    11  N    0.428988  -0.032921
    12  O   -0.076539   0.000669
    13  O    7.826021  -0.003922
    14  H   -0.003922   0.612089
 Mulliken charges:
               1
     1  C   -0.370069
     2  C    0.512938
     3  C   -0.482097
     4  C    0.512938
     5  C   -0.370069
     6  C    0.076820
     7  H    0.049190
     8  H    0.108454
     9  H    0.049190
    10  H    0.053851
    11  N    0.064346
    12  O   -0.156973
    13  O   -0.156973
    14  H    0.108454
 Sum of Mulliken charges =  -0.00000
 Mulliken charges with hydrogens summed into heavy atoms:
               1
     1  C   -0.320879
     2  C    0.621392
     3  C   -0.482097
     4  C    0.621392
     5  C   -0.320879
     6  C    0.130671
    11  N    0.064346
    12  O   -0.156973
    13  O   -0.156973
 Electronic spatial extent (au):  <R**2>=           1145.3053
 Charge=             -0.0000 electrons
 Dipole moment (field-independent basis, Debye):
    X=              0.0000    Y=             -5.2098    Z=             -0.0000  Tot=              5.2098
 Quadrupole moment (field-independent basis, Debye-Ang):
   XX=            -53.2744   YY=            -56.2350   ZZ=            -48.1532
   XY=             -0.0000   XZ=             -0.0000   YZ=             -0.0000
 Traceless Quadrupole moment (field-independent basis, Debye-Ang):
   XX=             -0.7202   YY=             -3.6808   ZZ=              4.4010
   XY=             -0.0000   XZ=             -0.0000   YZ=             -0.0000
 Octapole moment (field-independent basis, Debye-Ang**2):
  XXX=              0.0000  YYY=            -34.2704  ZZZ=             -0.0000  XYY=              0.0000
  XXY=             12.7866  XXZ=             -0.0000  XZZ=              0.0000  YZZ=             -8.2315
  YYZ=             -0.0000  XYZ=             -0.0000
 Hexadecapole moment (field-independent basis, Debye-Ang**3):
 XXXX=            -56.6049 YYYY=          -1051.0766 ZZZZ=           -351.6699 XXXY=              0.0001
 XXXZ=              0.0000 YYYX=             -0.0001 YYYZ=             -0.0000 ZZZX=              0.0000
 ZZZY=              0.0000 XXYY=           -190.5919 XXZZ=            -79.4162 YYZZ=           -238.4156
 XXYZ=              0.0000 YYXZ=             -0.0000 ZZXY=              0.0000
 N-N= 4.093864397825D+02 E-N=-1.838983013024D+03  KE= 4.350885949188D+02
 Symmetry A'   KE= 2.748771352302D+02
 Symmetry A"   KE= 1.602114596886D+02
 There are a total of      324752 grid points.
 ElSum from          density=       63.9999747959
 ElSum from atomic densities=       63.9999038936

 Hirshfeld populations at iteration   1 (CX, CA, CB, DipXYZ):
               1          2          3          4          5          6
     1  C    0.000000   3.012300   3.012300  -0.000000  -0.029181  -0.053543
     2  C    0.000000   3.009829   3.009829   0.000000   0.008849  -0.044370
     3  C    0.000000   2.984117   2.984117  -0.000000   0.108779  -0.000000
     4  C    0.000000   3.009829   3.009829   0.000000   0.008849   0.044370
     5  C    0.000000   3.012300   3.012300  -0.000000  -0.029181   0.053543
     6  C    0.000000   3.007366   3.007366   0.000000  -0.064401  -0.000000
     7  H    0.000002   0.474572   0.474572   0.000000  -0.079975  -0.137970
     8  H    0.000002   0.474565   0.474565   0.000000   0.044771   0.148804
     9  H    0.000002   0.474572   0.474572   0.000000  -0.079975   0.137970
    10  H    0.000002   0.474743   0.474743   0.000000  -0.157700   0.000000
    11  N    0.000000   3.380881   3.380881  -0.000000  -0.034333  -0.000000
    12  O    0.000003   4.105175   4.105175   0.000000  -0.104650  -0.118943
    13  O    0.000003   4.105175   4.105175   0.000000  -0.104650   0.118943
    14  H    0.000002   0.474565   0.474565   0.000000   0.044771  -0.148804
       Tot   0.000018  31.999987  31.999987   0.000001  -0.468027   0.000000

 Dip from Atomic Chgs              0.000000  -1.581691  -0.000000
         Total Dipole              0.000002  -2.049718  -0.000000

 Hirshfeld charges, spin densities, dipoles, and CM5 charges using IRadAn=      5:
              Q-H        S-H        Dx         Dy         Dz        Q-CM5   
     1  C   -0.024599   0.000000  -0.000000  -0.029181  -0.053543  -0.081793
     2  C   -0.019657   0.000000   0.000000   0.008849  -0.044370  -0.068516
     3  C    0.031766   0.000000  -0.000000   0.108779  -0.000000   0.083022
     4  C   -0.019657   0.000000   0.000000   0.008849   0.044370  -0.068516
     5  C   -0.024599   0.000000  -0.000000  -0.029181   0.053543  -0.081793
     6  C   -0.014732   0.000000   0.000000  -0.064401  -0.000000  -0.072188
     7  H    0.050855   0.000000   0.000000  -0.079975  -0.137970   0.108454
     8  H    0.050871   0.000000   0.000000   0.044771   0.148804   0.115140
     9  H    0.050855   0.000000   0.000000  -0.079975   0.137970   0.108454
    10  H    0.050515   0.000000   0.000000  -0.157700   0.000000   0.108083
    11  N    0.238238   0.000000  -0.000000  -0.034333  -0.000000   0.077682
    12  O   -0.210350   0.000000   0.000000  -0.104650  -0.118943  -0.171573
    13  O   -0.210350   0.000000   0.000000  -0.104650   0.118943  -0.171573
    14  H    0.050871   0.000000   0.000000   0.044771  -0.148804   0.115140
       Tot   0.000025   0.000000   0.000001  -0.468027   0.000000   0.000025
 Hirshfeld charges with hydrogens summed into heavy atoms:
              Q-H       Q-CM5   
     1  C    0.026256   0.026661
     2  C    0.031214   0.046625
     3  C    0.031766   0.083022
     4  C    0.031214   0.046625
     5  C    0.026256   0.026661
     6  C    0.035782   0.035895
    11  N    0.238238   0.077682
    12  O   -0.210350  -0.171573
    13  O   -0.210350  -0.171573
 
 EQQ=  0.00000000000     EQD=  0.00000000000     EDD= 0.625115513210E-02
 EQQ+QD+DD= 0.625115513210E-02
 
 No NMR shielding tensors so no spin-rotation constants.
 Leave Link  601 at Tue Dec  9 19:43:49 2025, MaxMem=  1610612736 cpu:               3.1 elap:               0.3
 (Enter /opt/g16/l607.exe)
 ******************************Gaussian NBO Version 3.1******************************
             N A T U R A L   A T O M I C   O R B I T A L   A N D
          N A T U R A L   B O N D   O R B I T A L   A N A L Y S I S
 ******************************Gaussian NBO Version 3.1******************************
       /RESON  / : Allow strongly delocalized NBO set

 Analyzing the SCF density

 Job title: NitroBenzene                                                    

 Storage needed:    285944 in NPA,    380603 in NBO (1610611644 available)
 GSVD:  LWork=       44310 too small for GESVD, short by       55385 words or       55385 for optimal perf.


 NATURAL POPULATIONS:  Natural atomic orbital occupancies 
                                                          
   NAO  Atom  No  lang   Type(AO)    Occupancy      Energy
 ----------------------------------------------------------
     1    C    1  S      Cor( 1S)     1.99916     -10.06683
     2    C    1  S      Val( 2S)     0.95634      -0.20901
     3    C    1  S      Ryd( 4S)     0.00145       1.40703
     4    C    1  S      Ryd( 3S)     0.00002       0.63330
     5    C    1  S      Ryd( 5S)     0.00002      20.97058
     6    C    1  px     Val( 2p)     0.99403      -0.14295
     7    C    1  px     Ryd( 4p)     0.00082       0.59109
     8    C    1  px     Ryd( 3p)     0.00035       0.54773
     9    C    1  px     Ryd( 5p)     0.00001       2.48108
    10    C    1  py     Val( 2p)     1.07886      -0.07646
    11    C    1  py     Ryd( 4p)     0.00457       1.37372
    12    C    1  py     Ryd( 3p)     0.00015       0.82469
    13    C    1  py     Ryd( 5p)     0.00009       2.56781
    14    C    1  pz     Val( 2p)     1.14713      -0.07916
    15    C    1  pz     Ryd( 4p)     0.00563       1.27967
    16    C    1  pz     Ryd( 3p)     0.00012       0.80382
    17    C    1  pz     Ryd( 5p)     0.00006       2.89203
    18    C    1  dxy    Ryd( 3d)     0.00029       1.46089
    19    C    1  dxy    Ryd( 4d)     0.00006       2.99332
    20    C    1  dxz    Ryd( 3d)     0.00036       1.42353
    21    C    1  dxz    Ryd( 4d)     0.00003       2.99843
    22    C    1  dyz    Ryd( 3d)     0.00101       2.16232
    23    C    1  dyz    Ryd( 4d)     0.00042       3.59529
    24    C    1  dx2y2  Ryd( 3d)     0.00123       2.28010
    25    C    1  dx2y2  Ryd( 4d)     0.00016       3.38084
    26    C    1  dz2    Ryd( 3d)     0.00102       2.12705
    27    C    1  dz2    Ryd( 4d)     0.00026       3.49275
 
    28    C    2  S      Cor( 1S)     1.99907     -10.06988
    29    C    2  S      Val( 2S)     0.95598      -0.20943
    30    C    2  S      Ryd( 3S)     0.00152       1.25728
    31    C    2  S      Ryd( 4S)     0.00003       1.93080
    32    C    2  S      Ryd( 5S)     0.00001      20.16137
    33    C    2  px     Val( 2p)     0.94699      -0.14328
    34    C    2  px     Ryd( 4p)     0.00108       0.57844
    35    C    2  px     Ryd( 3p)     0.00040       0.38632
    36    C    2  px     Ryd( 5p)     0.00002       2.70052
    37    C    2  py     Val( 2p)     1.09649      -0.08418
    38    C    2  py     Ryd( 4p)     0.00503       1.44297
    39    C    2  py     Ryd( 3p)     0.00030       0.62955
    40    C    2  py     Ryd( 5p)     0.00011       2.94524
    41    C    2  pz     Val( 2p)     1.14949      -0.08380
    42    C    2  pz     Ryd( 4p)     0.00574       1.20017
    43    C    2  pz     Ryd( 3p)     0.00015       0.58739
    44    C    2  pz     Ryd( 5p)     0.00008       3.23644
    45    C    2  dxy    Ryd( 3d)     0.00034       1.34159
    46    C    2  dxy    Ryd( 4d)     0.00009       3.10759
    47    C    2  dxz    Ryd( 3d)     0.00045       1.31302
    48    C    2  dxz    Ryd( 4d)     0.00006       3.12043
    49    C    2  dyz    Ryd( 3d)     0.00110       2.02339
    50    C    2  dyz    Ryd( 4d)     0.00047       3.70974
    51    C    2  dx2y2  Ryd( 3d)     0.00141       2.16409
    52    C    2  dx2y2  Ryd( 4d)     0.00013       3.46411
    53    C    2  dz2    Ryd( 3d)     0.00102       1.99713
    54    C    2  dz2    Ryd( 4d)     0.00028       3.58349
 
    55    C    3  S      Cor( 1S)     1.99877     -10.12401
    56    C    3  S      Val( 2S)     0.87798      -0.20044
    57    C    3  S      Ryd( 3S)     0.00090       0.91088
    58    C    3  S      Ryd( 4S)     0.00011       2.13593
    59    C    3  S      Ryd( 5S)     0.00002      19.83435
    60    C    3  px     Val( 2p)     1.07567      -0.16322
    61    C    3  px     Ryd( 4p)     0.00061       0.56940
    62    C    3  px     Ryd( 3p)     0.00038       0.30702
    63    C    3  px     Ryd( 5p)     0.00003       2.74955
    64    C    3  py     Val( 2p)     0.84633      -0.08967
    65    C    3  py     Ryd( 4p)     0.00676       0.89798
    66    C    3  py     Ryd( 3p)     0.00008       0.50608
    67    C    3  py     Ryd( 5p)     0.00012       3.52273
    68    C    3  pz     Val( 2p)     1.10800      -0.10680
    69    C    3  pz     Ryd( 4p)     0.00730       1.41881
    70    C    3  pz     Ryd( 3p)     0.00030       0.35002
    71    C    3  pz     Ryd( 5p)     0.00018       3.28572
    72    C    3  dxy    Ryd( 3d)     0.00039       1.46181
    73    C    3  dxy    Ryd( 4d)     0.00007       3.00282
    74    C    3  dxz    Ryd( 3d)     0.00051       1.44699
    75    C    3  dxz    Ryd( 4d)     0.00017       3.03622
    76    C    3  dyz    Ryd( 3d)     0.00065       2.50949
    77    C    3  dyz    Ryd( 4d)     0.00052       3.82655
    78    C    3  dx2y2  Ryd( 3d)     0.00083       1.80721
    79    C    3  dx2y2  Ryd( 4d)     0.00041       3.46121
    80    C    3  dz2    Ryd( 3d)     0.00129       2.07413
    81    C    3  dz2    Ryd( 4d)     0.00050       3.37219
 
    82    C    4  S      Cor( 1S)     1.99907     -10.06988
    83    C    4  S      Val( 2S)     0.95598      -0.20943
    84    C    4  S      Ryd( 3S)     0.00152       1.25728
    85    C    4  S      Ryd( 4S)     0.00003       1.93085
    86    C    4  S      Ryd( 5S)     0.00001      20.16132
    87    C    4  px     Val( 2p)     0.94699      -0.14328
    88    C    4  px     Ryd( 4p)     0.00108       0.57844
    89    C    4  px     Ryd( 3p)     0.00040       0.38632
    90    C    4  px     Ryd( 5p)     0.00002       2.70052
    91    C    4  py     Val( 2p)     1.09649      -0.08418
    92    C    4  py     Ryd( 4p)     0.00503       1.44297
    93    C    4  py     Ryd( 3p)     0.00030       0.62955
    94    C    4  py     Ryd( 5p)     0.00011       2.94524
    95    C    4  pz     Val( 2p)     1.14949      -0.08380
    96    C    4  pz     Ryd( 4p)     0.00574       1.20017
    97    C    4  pz     Ryd( 3p)     0.00015       0.58739
    98    C    4  pz     Ryd( 5p)     0.00008       3.23644
    99    C    4  dxy    Ryd( 3d)     0.00034       1.34159
   100    C    4  dxy    Ryd( 4d)     0.00009       3.10759
   101    C    4  dxz    Ryd( 3d)     0.00045       1.31302
   102    C    4  dxz    Ryd( 4d)     0.00006       3.12043
   103    C    4  dyz    Ryd( 3d)     0.00110       2.02339
   104    C    4  dyz    Ryd( 4d)     0.00047       3.70974
   105    C    4  dx2y2  Ryd( 3d)     0.00141       2.16409
   106    C    4  dx2y2  Ryd( 4d)     0.00013       3.46411
   107    C    4  dz2    Ryd( 3d)     0.00102       1.99713
   108    C    4  dz2    Ryd( 4d)     0.00028       3.58349
 
   109    C    5  S      Cor( 1S)     1.99916     -10.06683
   110    C    5  S      Val( 2S)     0.95634      -0.20901
   111    C    5  S      Ryd( 4S)     0.00145       1.40703
   112    C    5  S      Ryd( 3S)     0.00002       0.63330
   113    C    5  S      Ryd( 5S)     0.00002      20.97058
   114    C    5  px     Val( 2p)     0.99403      -0.14295
   115    C    5  px     Ryd( 4p)     0.00082       0.59109
   116    C    5  px     Ryd( 3p)     0.00035       0.54773
   117    C    5  px     Ryd( 5p)     0.00001       2.48108
   118    C    5  py     Val( 2p)     1.07886      -0.07646
   119    C    5  py     Ryd( 4p)     0.00457       1.37372
   120    C    5  py     Ryd( 3p)     0.00015       0.82469
   121    C    5  py     Ryd( 5p)     0.00009       2.56781
   122    C    5  pz     Val( 2p)     1.14713      -0.07916
   123    C    5  pz     Ryd( 4p)     0.00563       1.27967
   124    C    5  pz     Ryd( 3p)     0.00012       0.80382
   125    C    5  pz     Ryd( 5p)     0.00006       2.89203
   126    C    5  dxy    Ryd( 3d)     0.00029       1.46089
   127    C    5  dxy    Ryd( 4d)     0.00006       2.99332
   128    C    5  dxz    Ryd( 3d)     0.00036       1.42353
   129    C    5  dxz    Ryd( 4d)     0.00003       2.99843
   130    C    5  dyz    Ryd( 3d)     0.00101       2.16232
   131    C    5  dyz    Ryd( 4d)     0.00042       3.59529
   132    C    5  dx2y2  Ryd( 3d)     0.00123       2.28010
   133    C    5  dx2y2  Ryd( 4d)     0.00016       3.38084
   134    C    5  dz2    Ryd( 3d)     0.00102       2.12705
   135    C    5  dz2    Ryd( 4d)     0.00026       3.49275
 
   136    C    6  S      Cor( 1S)     1.99916     -10.06840
   137    C    6  S      Val( 2S)     0.95927      -0.21106
   138    C    6  S      Ryd( 4S)     0.00147       1.35573
   139    C    6  S      Ryd( 5S)     0.00002      21.09929
   140    C    6  S      Ryd( 3S)     0.00001       0.62277
   141    C    6  px     Val( 2p)     0.95182      -0.14214
   142    C    6  px     Ryd( 4p)     0.00068       0.58241
   143    C    6  px     Ryd( 3p)     0.00029       0.56109
   144    C    6  px     Ryd( 5p)     0.00000       2.45784
   145    C    6  py     Val( 2p)     1.17234      -0.07641
   146    C    6  py     Ryd( 4p)     0.00646       1.20875
   147    C    6  py     Ryd( 3p)     0.00008       0.88676
   148    C    6  py     Ryd( 5p)     0.00005       3.05441
   149    C    6  pz     Val( 2p)     1.05843      -0.07720
   150    C    6  pz     Ryd( 4p)     0.00398       1.34034
   151    C    6  pz     Ryd( 3p)     0.00014       0.84261
   152    C    6  pz     Ryd( 5p)     0.00010       2.39792
   153    C    6  dxy    Ryd( 3d)     0.00041       1.43617
   154    C    6  dxy    Ryd( 4d)     0.00001       2.96454
   155    C    6  dxz    Ryd( 3d)     0.00026       1.50189
   156    C    6  dxz    Ryd( 4d)     0.00007       2.95334
   157    C    6  dyz    Ryd( 3d)     0.00078       2.36773
   158    C    6  dyz    Ryd( 4d)     0.00029       3.45631
   159    C    6  dx2y2  Ryd( 3d)     0.00136       1.88283
   160    C    6  dx2y2  Ryd( 4d)     0.00013       3.41893
   161    C    6  dz2    Ryd( 3d)     0.00116       2.32535
   162    C    6  dz2    Ryd( 4d)     0.00038       3.50333
 
   163    H    7  S      Val( 1S)     0.78641       0.03884
   164    H    7  S      Ryd( 4S)     0.00043       1.98490
   165    H    7  S      Ryd( 3S)     0.00006       0.92001
   166    H    7  S      Ryd( 2S)     0.00003       0.50718
   167    H    7  px     Ryd( 2p)     0.00020       0.66187
   168    H    7  px     Ryd( 3p)     0.00019       2.72985
   169    H    7  px     Ryd( 4p)     0.00000       7.36608
   170    H    7  py     Ryd( 2p)     0.00094       1.14940
   171    H    7  py     Ryd( 3p)     0.00004       3.06700
   172    H    7  py     Ryd( 4p)     0.00001       8.02590
   173    H    7  pz     Ryd( 2p)     0.00107       1.21714
   174    H    7  pz     Ryd( 3p)     0.00012       3.16139
   175    H    7  pz     Ryd( 4p)     0.00001       8.16739
 
   176    H    8  S      Val( 1S)     0.76135       0.05107
   177    H    8  S      Ryd( 4S)     0.00087       1.99052
   178    H    8  S      Ryd( 3S)     0.00006       0.98314
   179    H    8  S      Ryd( 2S)     0.00006       0.48312
   180    H    8  px     Ryd( 2p)     0.00035       0.56620
   181    H    8  px     Ryd( 3p)     0.00014       3.07757
   182    H    8  px     Ryd( 4p)     0.00001       7.17214
   183    H    8  py     Ryd( 2p)     0.00117       1.21201
   184    H    8  py     Ryd( 3p)     0.00010       3.37075
   185    H    8  py     Ryd( 4p)     0.00001       7.94167
   186    H    8  pz     Ryd( 2p)     0.00100       1.09367
   187    H    8  pz     Ryd( 3p)     0.00014       3.41259
   188    H    8  pz     Ryd( 4p)     0.00002       8.04030
 
   189    H    9  S      Val( 1S)     0.78641       0.03884
   190    H    9  S      Ryd( 4S)     0.00043       1.98490
   191    H    9  S      Ryd( 3S)     0.00006       0.92001
   192    H    9  S      Ryd( 2S)     0.00003       0.50718
   193    H    9  px     Ryd( 2p)     0.00020       0.66187
   194    H    9  px     Ryd( 3p)     0.00019       2.72985
   195    H    9  px     Ryd( 4p)     0.00000       7.36608
   196    H    9  py     Ryd( 2p)     0.00094       1.14940
   197    H    9  py     Ryd( 3p)     0.00004       3.06700
   198    H    9  py     Ryd( 4p)     0.00001       8.02590
   199    H    9  pz     Ryd( 2p)     0.00107       1.21714
   200    H    9  pz     Ryd( 3p)     0.00012       3.16139
   201    H    9  pz     Ryd( 4p)     0.00001       8.16739
 
   202    H   10  S      Val( 1S)     0.79046       0.03671
   203    H   10  S      Ryd( 4S)     0.00042       2.00428
   204    H   10  S      Ryd( 3S)     0.00005       0.98852
   205    H   10  S      Ryd( 2S)     0.00003       0.38670
   206    H   10  px     Ryd( 2p)     0.00014       0.68287
   207    H   10  px     Ryd( 3p)     0.00018       2.64571
   208    H   10  px     Ryd( 4p)     0.00000       7.42641
   209    H   10  py     Ryd( 2p)     0.00123       1.23951
   210    H   10  py     Ryd( 3p)     0.00014       3.18017
   211    H   10  py     Ryd( 4p)     0.00001       8.27891
   212    H   10  pz     Ryd( 2p)     0.00080       1.19761
   213    H   10  pz     Ryd( 3p)     0.00001       2.92902
   214    H   10  pz     Ryd( 4p)     0.00001       8.00572
 
   215    N   11  S      Cor( 1S)     1.99944     -14.41557
   216    N   11  S      Val( 2S)     1.10511      -0.54694
   217    N   11  S      Ryd( 4S)     0.00408       1.25963
   218    N   11  S      Ryd( 3S)     0.00040       0.93545
   219    N   11  S      Ryd( 5S)     0.00001      35.30715
   220    N   11  px     Val( 2p)     1.16433      -0.32825
   221    N   11  px     Ryd( 4p)     0.00152       0.66503
   222    N   11  px     Ryd( 3p)     0.00032       0.56396
   223    N   11  px     Ryd( 5p)     0.00004       3.65794
   224    N   11  py     Val( 2p)     1.19683      -0.31152
   225    N   11  py     Ryd( 4p)     0.01039       0.95977
   226    N   11  py     Ryd( 3p)     0.00112       0.69060
   227    N   11  py     Ryd( 5p)     0.00005       4.41069
   228    N   11  pz     Val( 2p)     1.00107      -0.28017
   229    N   11  pz     Ryd( 4p)     0.01740       1.10864
   230    N   11  pz     Ryd( 3p)     0.00015       0.60135
   231    N   11  pz     Ryd( 5p)     0.00005       4.54941
   232    N   11  dxy    Ryd( 3d)     0.00108       1.75176
   233    N   11  dxy    Ryd( 4d)     0.00000       4.48013
   234    N   11  dxz    Ryd( 3d)     0.00463       1.82495
   235    N   11  dxz    Ryd( 4d)     0.00002       4.44015
   236    N   11  dyz    Ryd( 3d)     0.00359       2.49144
   237    N   11  dyz    Ryd( 4d)     0.00018       5.13698
   238    N   11  dx2y2  Ryd( 3d)     0.00096       1.95017
   239    N   11  dx2y2  Ryd( 4d)     0.00010       4.73042
   240    N   11  dz2    Ryd( 3d)     0.00465       2.36281
   241    N   11  dz2    Ryd( 4d)     0.00008       4.90426
 
   242    O   12  S      Cor( 1S)     1.99980     -18.95368
   243    O   12  S      Val( 2S)     1.75697      -0.91333
   244    O   12  S      Ryd( 3S)     0.00142       1.42763
   245    O   12  S      Ryd( 4S)     0.00015       2.00494
   246    O   12  S      Ryd( 5S)     0.00000      49.36501
   247    O   12  px     Val( 2p)     1.44631      -0.28774
   248    O   12  px     Ryd( 3p)     0.00154       0.57579
   249    O   12  px     Ryd( 4p)     0.00019       0.86046
   250    O   12  px     Ryd( 5p)     0.00000       4.90875
   251    O   12  py     Val( 2p)     1.73155      -0.29251
   252    O   12  py     Ryd( 3p)     0.00213       0.74662
   253    O   12  py     Ryd( 4p)     0.00015       0.91196
   254    O   12  py     Ryd( 5p)     0.00002       5.17865
   255    O   12  pz     Val( 2p)     1.42904      -0.27607
   256    O   12  pz     Ryd( 3p)     0.00218       0.69539
   257    O   12  pz     Ryd( 4p)     0.00012       0.98040
   258    O   12  pz     Ryd( 5p)     0.00006       5.30395
   259    O   12  dxy    Ryd( 3d)     0.00137       1.65791
   260    O   12  dxy    Ryd( 4d)     0.00002       6.70134
   261    O   12  dxz    Ryd( 3d)     0.00245       1.80567
   262    O   12  dxz    Ryd( 4d)     0.00002       6.82060
   263    O   12  dyz    Ryd( 3d)     0.00353       2.09461
   264    O   12  dyz    Ryd( 4d)     0.00002       7.01507
   265    O   12  dx2y2  Ryd( 3d)     0.00104       1.74376
   266    O   12  dx2y2  Ryd( 4d)     0.00001       6.78392
   267    O   12  dz2    Ryd( 3d)     0.00404       2.08498
   268    O   12  dz2    Ryd( 4d)     0.00005       7.00922
 
   269    O   13  S      Cor( 1S)     1.99980     -18.95368
   270    O   13  S      Val( 2S)     1.75697      -0.91333
   271    O   13  S      Ryd( 3S)     0.00142       1.42763
   272    O   13  S      Ryd( 4S)     0.00015       2.00494
   273    O   13  S      Ryd( 5S)     0.00000      49.36501
   274    O   13  px     Val( 2p)     1.44631      -0.28774
   275    O   13  px     Ryd( 3p)     0.00154       0.57579
   276    O   13  px     Ryd( 4p)     0.00019       0.86046
   277    O   13  px     Ryd( 5p)     0.00000       4.90875
   278    O   13  py     Val( 2p)     1.73155      -0.29251
   279    O   13  py     Ryd( 3p)     0.00213       0.74662
   280    O   13  py     Ryd( 4p)     0.00015       0.91196
   281    O   13  py     Ryd( 5p)     0.00002       5.17865
   282    O   13  pz     Val( 2p)     1.42904      -0.27607
   283    O   13  pz     Ryd( 3p)     0.00218       0.69539
   284    O   13  pz     Ryd( 4p)     0.00012       0.98040
   285    O   13  pz     Ryd( 5p)     0.00006       5.30395
   286    O   13  dxy    Ryd( 3d)     0.00137       1.65791
   287    O   13  dxy    Ryd( 4d)     0.00002       6.70134
   288    O   13  dxz    Ryd( 3d)     0.00245       1.80567
   289    O   13  dxz    Ryd( 4d)     0.00002       6.82060
   290    O   13  dyz    Ryd( 3d)     0.00353       2.09461
   291    O   13  dyz    Ryd( 4d)     0.00002       7.01507
   292    O   13  dx2y2  Ryd( 3d)     0.00104       1.74376
   293    O   13  dx2y2  Ryd( 4d)     0.00001       6.78392
   294    O   13  dz2    Ryd( 3d)     0.00404       2.08498
   295    O   13  dz2    Ryd( 4d)     0.00005       7.00922
 
   296    H   14  S      Val( 1S)     0.76135       0.05107
   297    H   14  S      Ryd( 4S)     0.00087       1.99052
   298    H   14  S      Ryd( 3S)     0.00006       0.98314
   299    H   14  S      Ryd( 2S)     0.00006       0.48312
   300    H   14  px     Ryd( 2p)     0.00035       0.56620
   301    H   14  px     Ryd( 3p)     0.00014       3.07757
   302    H   14  px     Ryd( 4p)     0.00001       7.17214
   303    H   14  py     Ryd( 2p)     0.00117       1.21201
   304    H   14  py     Ryd( 3p)     0.00010       3.37075
   305    H   14  py     Ryd( 4p)     0.00001       7.94167
   306    H   14  pz     Ryd( 2p)     0.00100       1.09367
   307    H   14  pz     Ryd( 3p)     0.00014       3.41259
   308    H   14  pz     Ryd( 4p)     0.00002       8.04030

 WARNING:  1 low occupancy (<1.9990e) core orbital  found on  C    3

 WARNING:  Population inversion found on atom  C    1
           Population inversion found on atom  C    2
           Population inversion found on atom  C    3
           Population inversion found on atom  C    4
           Population inversion found on atom  C    5
           Population inversion found on atom  C    6
           Population inversion found on atom  H    7
           Population inversion found on atom  H    8
           Population inversion found on atom  H    9
           Population inversion found on atom  H   10
           Population inversion found on atom  N   11
           Population inversion found on atom  H   14


 Summary of Natural Population Analysis:                  
                                                          
                                       Natural Population 
                Natural  -----------------------------------------------
    Atom  No    Charge         Core      Valence    Rydberg      Total
 -----------------------------------------------------------------------
      C    1   -0.19366      1.99916     4.17637    0.01813     6.19366
      C    2   -0.16785      1.99907     4.14896    0.01983     6.16785
      C    3    0.07114      1.99877     3.90798    0.02211     5.92886
      C    4   -0.16785      1.99907     4.14896    0.01983     6.16785
      C    5   -0.19366      1.99916     4.17637    0.01813     6.19366
      C    6   -0.15916      1.99916     4.14187    0.01814     6.15916
      H    7    0.21050      0.00000     0.78641    0.00310     0.78950
      H    8    0.23474      0.00000     0.76135    0.00391     0.76526
      H    9    0.21050      0.00000     0.78641    0.00310     0.78950
      H   10    0.20651      0.00000     0.79046    0.00303     0.79349
      N   11    0.48240      1.99944     4.46735    0.05081     6.51760
      O   12   -0.38417      1.99980     6.36386    0.02051     8.38417
      O   13   -0.38417      1.99980     6.36386    0.02051     8.38417
      H   14    0.23474      0.00000     0.76135    0.00391     0.76526
 =======================================================================
   * Total *    0.00000     17.99344    45.78153    0.22503    64.00000

                                 Natural Population      
 --------------------------------------------------------
   Core                      17.99344 ( 99.9636% of  18)
   Valence                   45.78153 ( 99.5251% of  46)
   Natural Minimal Basis     63.77497 ( 99.6484% of  64)
   Natural Rydberg Basis      0.22503 (  0.3516% of  64)
 --------------------------------------------------------

    Atom  No          Natural Electron Configuration
 ----------------------------------------------------------------------------
      C    1      [core]2S( 0.96)2p( 3.22)4p( 0.01)
      C    2      [core]2S( 0.96)2p( 3.19)4p( 0.01)
      C    3      [core]2S( 0.88)2p( 3.03)4p( 0.01)
      C    4      [core]2S( 0.96)2p( 3.19)4p( 0.01)
      C    5      [core]2S( 0.96)2p( 3.22)4p( 0.01)
      C    6      [core]2S( 0.96)2p( 3.18)4p( 0.01)
      H    7            1S( 0.79)
      H    8            1S( 0.76)
      H    9            1S( 0.79)
      H   10            1S( 0.79)
      N   11      [core]2S( 1.11)2p( 3.36)3d( 0.01)4p( 0.03)
      O   12      [core]2S( 1.76)2p( 4.61)3p( 0.01)3d( 0.01)
      O   13      [core]2S( 1.76)2p( 4.61)3p( 0.01)3d( 0.01)
      H   14            1S( 0.76)


 NATURAL BOND ORBITAL ANALYSIS:

                       Occupancies       Lewis Structure    Low   High
           Occ.    -------------------  -----------------   occ   occ
  Cycle   Thresh.   Lewis   Non-Lewis     CR  BD  3C  LP    (L)   (NL)   Dev
 =============================================================================
   1(1)    1.90    60.01316   3.98684      9  15   0   8     4      4    0.49
   2(2)    1.90    60.01316   3.98684      9  15   0   8     4      4    0.49
   3(1)    1.80    60.01316   3.98684      9  15   0   8     4      4    0.49
   4(2)    1.80    60.01316   3.98684      9  15   0   8     4      4    0.49
   5(1)    1.70    60.01316   3.98684      9  15   0   8     4      4    0.49
   6(2)    1.70    60.01316   3.98684      9  15   0   8     4      4    0.49
   7(1)    1.60    61.86945   2.13055      9  18   0   5     1      4    0.49
   8(2)    1.60    61.86945   2.13055      9  18   0   5     1      4    0.49
   9(1)    1.50    61.86945   2.13055      9  18   0   5     1      4    0.49
  10(2)    1.50    61.86945   2.13055      9  18   0   5     1      4    0.49
  11(1)    1.60    61.86945   2.13055      9  18   0   5     1      4    0.49
 -----------------------------------------------------------------------------

 Structure accepted: RESONANCE keyword permits strongly delocalized structure

 WARNING:  1 low occupancy (<1.9990e) core orbital  found on  C    3

 --------------------------------------------------------
   Core                     17.99345 ( 99.964% of  18)
   Valence Lewis            43.87600 ( 95.383% of  46)
  ==================       ============================
   Total Lewis              61.86945 ( 96.671% of  64)
  -----------------------------------------------------
   Valence non-Lewis         1.99245 (  3.113% of  64)
   Rydberg non-Lewis         0.13810 (  0.216% of  64)
  ==================       ============================
   Total non-Lewis           2.13055 (  3.329% of  64)
 --------------------------------------------------------


       (Occupancy)   Bond orbital/ Coefficients/ Hybrids
 ---------------------------------------------------------------------------------
     1. (1.97612) BD ( 1) C   1 - C   2  
                ( 49.50%)   0.7035* C   1 s( 35.06%)p 1.85( 64.84%)d 0.00(  0.10%)
                                            0.0001  0.5920 -0.0133  0.0007 -0.0002
                                           -0.0000 -0.0000 -0.0000  0.0000  0.8039
                                           -0.0167 -0.0072  0.0023 -0.0186  0.0385
                                           -0.0025  0.0020  0.0000 -0.0000  0.0000
                                           -0.0000  0.0028  0.0002 -0.0300 -0.0014
                                           -0.0049 -0.0090
                ( 50.50%)   0.7107* C   2 s( 35.94%)p 1.78( 63.95%)d 0.00(  0.11%)
                                           -0.0001  0.5993 -0.0155  0.0004  0.0007
                                           -0.0000 -0.0000  0.0000 -0.0000 -0.7984
                                            0.0144  0.0065 -0.0004 -0.0126  0.0397
                                           -0.0034  0.0015  0.0000  0.0000 -0.0000
                                            0.0000 -0.0059  0.0006 -0.0304 -0.0022
                                           -0.0027 -0.0092
     2. (1.64625) BD ( 2) C   1 - C   2  
                ( 51.75%)   0.7194* C   1 s(  0.00%)p 1.00( 99.96%)d 0.00(  0.04%)
                                           -0.0000 -0.0000 -0.0000 -0.0000 -0.0000
                                            0.9995  0.0167  0.0181 -0.0020  0.0000
                                           -0.0000 -0.0000 -0.0000  0.0000 -0.0000
                                            0.0000 -0.0000  0.0147  0.0019  0.0129
                                           -0.0032 -0.0000  0.0000  0.0000  0.0000
                                           -0.0000  0.0000
                ( 48.25%)   0.6946* C   2 s(  0.00%)p 1.00( 99.95%)d 0.00(  0.05%)
                                            0.0000  0.0000 -0.0000 -0.0000 -0.0000
                                            0.9995  0.0115  0.0173  0.0020 -0.0000
                                           -0.0000 -0.0000 -0.0000  0.0000  0.0000
                                            0.0000  0.0000 -0.0147 -0.0042  0.0156
                                           -0.0039 -0.0000  0.0000 -0.0000 -0.0000
                                            0.0000 -0.0000
     3. (1.98077) BD ( 1) C   1 - C   6  
                ( 50.03%)   0.7073* C   1 s( 35.35%)p 1.83( 64.55%)d 0.00(  0.11%)
                                            0.0001  0.5943 -0.0153 -0.0008  0.0000
                                            0.0000 -0.0000 -0.0000  0.0000 -0.4218
                                            0.0422  0.0015  0.0006  0.6824  0.0044
                                           -0.0072  0.0028 -0.0000 -0.0000  0.0000
                                           -0.0000 -0.0157 -0.0067 -0.0145  0.0052
                                            0.0233  0.0016
                ( 49.97%)   0.7069* C   6 s( 35.38%)p 1.82( 64.51%)d 0.00(  0.10%)
                                            0.0000  0.5946 -0.0144 -0.0000 -0.0000
                                           -0.0000 -0.0000  0.0000 -0.0000  0.3806
                                            0.0251 -0.0051  0.0028 -0.7060  0.0340
                                            0.0047 -0.0010 -0.0000  0.0000  0.0000
                                            0.0000 -0.0182 -0.0068 -0.0170  0.0054
                                            0.0187  0.0011
     4. (1.98070) BD ( 1) C   1 - H   7  
[...]
   155. RY*(  13) C   6                  0.00000     0.95851   
   156. RY*(  14) C   6                  0.00001    11.45563   
   157. RY*(  15) C   6                  0.00000     1.24624   
   158. RY*(  16) C   6                  0.00000     3.03991   
   159. RY*(  17) C   6                  0.00000     1.09545   
   160. RY*(  18) C   6                  0.00000     1.81309   
   161. RY*(  19) C   6                  0.00000     1.12768   
   162. RY*(  20) C   6                  0.00001     1.91726   
   163. RY*(  21) C   6                  0.00000     7.46244   
   164. RY*(  22) C   6                  0.00000     3.59949   
   165. RY*(   1) H   7                  0.00076     1.08482   
   166. RY*(   2) H   7                  0.00060     0.96320   
   167. RY*(   3) H   7                  0.00034     1.16813   
   168. RY*(   4) H   7                  0.00020     2.25727   
   169. RY*(   5) H   7                  0.00005     1.28215   
   170. RY*(   6) H   7                  0.00005     1.67302   
   171. RY*(   7) H   7                  0.00002     2.53044   
   172. RY*(   8) H   7                  0.00002     1.76432   
   173. RY*(   9) H   7                  0.00000     8.51248   
   174. RY*(  10) H   7                  0.00001     1.39629   
   175. RY*(  11) H   7                  0.00000     8.41928   
   176. RY*(  12) H   7                  0.00000     7.91985   
   177. RY*(   1) H   8                  0.00144     0.82954   
   178. RY*(   2) H   8                  0.00056     1.15028   
   179. RY*(   3) H   8                  0.00040     0.75073   
   180. RY*(   4) H   8                  0.00027     2.22402   
   181. RY*(   5) H   8                  0.00010     2.28082   
   182. RY*(   6) H   8                  0.00008     1.46183   
   183. RY*(   7) H   8                  0.00004     2.15416   
   184. RY*(   8) H   8                  0.00002     2.60287   
   185. RY*(   9) H   8                  0.00000     8.59242   
   186. RY*(  10) H   8                  0.00000     1.43452   
   187. RY*(  11) H   8                  0.00000     8.11421   
   188. RY*(  12) H   8                  0.00000     7.80558   
   189. RY*(   1) H   9                  0.00075     1.08441   
   190. RY*(   2) H   9                  0.00060     0.96373   
   191. RY*(   3) H   9                  0.00034     1.16816   
   192. RY*(   4) H   9                  0.00020     2.25721   
   193. RY*(   5) H   9                  0.00005     1.28283   
   194. RY*(   6) H   9                  0.00005     1.67300   
   195. RY*(   7) H   9                  0.00002     2.53020   
   196. RY*(   8) H   9                  0.00002     1.76385   
   197. RY*(   9) H   9                  0.00000     8.51233   
   198. RY*(  10) H   9                  0.00001     1.39629   
   199. RY*(  11) H   9                  0.00000     8.41939   
   200. RY*(  12) H   9                  0.00000     7.91985   
   201. RY*(   1) H  10                  0.00079     1.24115   
   202. RY*(   2) H  10                  0.00064     0.82611   
   203. RY*(   3) H  10                  0.00029     1.28976   
   204. RY*(   4) H  10                  0.00018     2.27306   
   205. RY*(   5) H  10                  0.00005     1.53358   
   206. RY*(   6) H  10                  0.00005     1.31052   
   207. RY*(   7) H  10                  0.00002     1.76993   
   208. RY*(   8) H  10                  0.00001     2.83193   
   209. RY*(   9) H  10                  0.00000     8.06785   
   210. RY*(  10) H  10                  0.00000     1.24256   
   211. RY*(  11) H  10                  0.00000     8.64467   
   212. RY*(  12) H  10                  0.00000     7.93714   
   213. RY*(   1) N  11                  0.01691     1.14517   
   214. RY*(   2) N  11                  0.00966     1.25781   
   215. RY*(   3) N  11                  0.00679     1.81271   
   216. RY*(   4) N  11                  0.00353     1.75318   
   217. RY*(   5) N  11                  0.00311     2.44016   
   218. RY*(   6) N  11                  0.00134     1.27568   
   219. RY*(   7) N  11                  0.00045     1.85679   
   220. RY*(   8) N  11                  0.00018     1.50308   
   221. RY*(   9) N  11                  0.00014     3.93828   
   222. RY*(  10) N  11                  0.00004     1.71693   
   223. RY*(  11) N  11                  0.00004     0.84150   
   224. RY*(  12) N  11                  0.00003     3.18002   
   225. RY*(  13) N  11                  0.00001     1.12935   
   226. RY*(  14) N  11                  0.00001     5.05771   
   227. RY*(  15) N  11                  0.00001     3.16818   
   228. RY*(  16) N  11                  0.00001     4.33880   
   229. RY*(  17) N  11                  0.00000     3.72684   
   230. RY*(  18) N  11                  0.00001     4.48753   
   231. RY*(  19) N  11                  0.00000    34.17428   
   232. RY*(  20) N  11                  0.00000     0.68853   
   233. RY*(  21) N  11                  0.00000     4.55005   
   234. RY*(  22) N  11                  0.00000     4.67943   
   235. RY*(   1) O  12                  0.00326     0.84199   
   236. RY*(   2) O  12                  0.00193     0.85254   
   237. RY*(   3) O  12                  0.00065     1.03352   
   238. RY*(   4) O  12                  0.00019     1.93142   
   239. RY*(   5) O  12                  0.00015     1.45791   
   240. RY*(   6) O  12                  0.00009     1.54912   
   241. RY*(   7) O  12                  0.00006     2.32701   
   242. RY*(   8) O  12                  0.00004     3.59246   
   243. RY*(   9) O  12                  0.00001     1.19063   
   244. RY*(  10) O  12                  0.00001     2.63465   
   245. RY*(  11) O  12                  0.00001     0.70973   
   246. RY*(  12) O  12                  0.00000     4.92877   
   247. RY*(  13) O  12                  0.00000     2.60849   
   248. RY*(  14) O  12                  0.00000     6.64934   
   249. RY*(  15) O  12                  0.00000     5.03913   
   250. RY*(  16) O  12                  0.00000     6.67037   
   251. RY*(  17) O  12                  0.00000     1.89408   
   252. RY*(  18) O  12                  0.00000     6.73223   
   253. RY*(  19) O  12                  0.00001     1.59727   
   254. RY*(  20) O  12                  0.00000     6.66083   
   255. RY*(  21) O  12                  0.00000    49.26945   
   256. RY*(  22) O  12                  0.00000     6.66994   
   257. RY*(   1) O  13                  0.00326     0.84179   
   258. RY*(   2) O  13                  0.00160     0.85298   
   259. RY*(   3) O  13                  0.00065     1.03335   
   260. RY*(   4) O  13                  0.00019     1.93256   
   261. RY*(   5) O  13                  0.00015     1.45812   
   262. RY*(   6) O  13                  0.00009     1.54905   
   263. RY*(   7) O  13                  0.00006     2.32778   
   264. RY*(   8) O  13                  0.00004     3.59071   
   265. RY*(   9) O  13                  0.00001     1.35437   
   266. RY*(  10) O  13                  0.00001     2.30849   
   267. RY*(  11) O  13                  0.00001     0.72909   
   268. RY*(  12) O  13                  0.00000     4.92962   
   269. RY*(  13) O  13                  0.00000     5.04708   
   270. RY*(  14) O  13                  0.00000     6.66810   
   271. RY*(  15) O  13                  0.00000     2.87031   
   272. RY*(  16) O  13                  0.00000     6.67487   
   273. RY*(  17) O  13                  0.00000     1.87276   
   274. RY*(  18) O  13                  0.00000     6.72969   
   275. RY*(  19) O  13                  0.00001     1.47788   
   276. RY*(  20) O  13                  0.00000     6.67251   
   277. RY*(  21) O  13                  0.00000    49.26439   
   278. RY*(  22) O  13                  0.00000     6.65674   
   279. RY*(   1) H  14                  0.00144     0.82931   
   280. RY*(   2) H  14                  0.00056     1.15068   
   281. RY*(   3) H  14                  0.00040     0.75091   
   282. RY*(   4) H  14                  0.00027     2.22436   
   283. RY*(   5) H  14                  0.00010     2.28058   
   284. RY*(   6) H  14                  0.00008     1.46085   
   285. RY*(   7) H  14                  0.00004     2.15416   
   286. RY*(   8) H  14                  0.00002     2.60245   
   287. RY*(   9) H  14                  0.00000     8.59247   
   288. RY*(  10) H  14                  0.00000     1.43554   
   289. RY*(  11) H  14                  0.00000     8.11403   
   290. RY*(  12) H  14                  0.00000     7.80563   
   291. BD*(   1) C   1 - C   2          0.01568     0.55344   
   292. BD*(   2) C   1 - C   2          0.29895     0.00163  303(v),298(v),57(g),35(g)
   293. BD*(   1) C   1 - C   6          0.01612     0.54990   
   294. BD*(   1) C   1 - H   7          0.01355     0.42151   
   295. BD*(   1) C   2 - C   3          0.02249     0.54084   
   296. BD*(   1) C   2 - H  14          0.01354     0.43158   
   297. BD*(   1) C   3 - C   4          0.02249     0.54078   
   298. BD*(   2) C   3 - C   4          0.37722    -0.00539  303(v),292(v),307(v),101(g)
   299. BD*(   1) C   3 - N  11          0.10549     0.25507  220(g),296(v),301(v),300(v)
                                                    291(v),79(g)
   300. BD*(   1) C   4 - C   5          0.01567     0.55353   
   301. BD*(   1) C   4 - H   8          0.01355     0.43156   
   302. BD*(   1) C   5 - C   6          0.01612     0.54987   
   303. BD*(   2) C   5 - C   6          0.31650     0.00077  292(v),298(v),146(g),123(g)
   304. BD*(   1) C   5 - H   9          0.01355     0.42149   
   305. BD*(   1) C   6 - H  10          0.01334     0.42159   
   306. BD*(   1) N  11 - O  12          0.05619     0.40748   
   307. BD*(   2) N  11 - O  12          0.61984    -0.15130  32(v),298(v),236(g),215(g)
                                                    258(v),223(g),251(g),232(g)
   308. BD*(   1) N  11 - O  13          0.05623     0.40731   
       -------------------------------
              Total Lewis   61.85254  ( 96.6446%)
        Valence non-Lewis    2.00653  (  3.1352%)
        Rydberg non-Lewis    0.14093  (  0.2202%)
       -------------------------------
            Total unit  1   64.00000  (100.0000%)
           Charge unit  1    0.00000
 Sorting of NBOs:                   27   26   25   21   24   22   20   23   19   16
 Sorting of NBOs:                   18    9   30   28    5    7   10    1    3   12
 Sorting of NBOs:                   15    6   11   14    4   17   29   31   32    8
 Sorting of NBOs:                    2   13  307  298  303  292  299  308  306  304
 Sorting of NBOs:                  294  305  301  296   97  297  295   57  302  293
 Sorting of NBOs:                  291  300   35  101  146  123  232  153  245  267
 Sorting of NBOs:                   51  139  179  281  202  279  177  223  257  235
 Sorting of NBOs:                  236  258  111   67   80  155  166  190   45  133
 Sorting of NBOs:                  119   75   47  135  259  237   78  189  165  159
 Sorting of NBOs:                   83  161  225  213  178  280   64  167  191   44
 Sorting of NBOs:                  132  108  243  201  210  157  214  218  169  193
 Sorting of NBOs:                  203  206  131   43  143  265   39  127   33  121
 Sorting of NBOs:                  198  174   55   99  186  288   56  100   79  239
 Sorting of NBOs:                  261  284  182  275  220  205  262  240   77  253
 Sorting of NBOs:                  194  170   94  222  144  216   34  122   69  113
 Sorting of NBOs:                  196  172  207  105   61  215  160   70  114  219
 Sorting of NBOs:                  273  251  102   58  162   85  238  260  145  137
 Sorting of NBOs:                   49   59  103   81   86  149   36  124  183  285
 Sorting of NBOs:                   91  180  282  192  168  204  283  181  266  241
 Sorting of NBOs:                  263   87   92  104   89  140   52  217   66  110
 Sorting of NBOs:                  154  125   60   62  106  195  171   37  117   73
 Sorting of NBOs:                  286  184  247   84  147  244  126   38   46  134
 Sorting of NBOs:                  148   96   95  208   50  138  271  136   48   63
 Sorting of NBOs:                  107  129   41  151  158  116   72   74  118  227
 Sorting of NBOs:                  224   82   88  152   98   90   68  112   54  142
 Sorting of NBOs:                   76  120  264  242  164  229  109   65  221  228
 Sorting of NBOs:                  230  233  234  246  268  249  269  226  130   42
 Sorting of NBOs:                  128   40  150  248  278  254  270  256  250  276
 Sorting of NBOs:                  272  274  252  163  188  290  176  200  212  209
 Sorting of NBOs:                  289  187  175  199  197  173  185  287  211  156
 Sorting of NBOs:                  141   53  115   71   93  231  277  255
 Reordering of NBOs for storage:    27   26   25   21   24   22   20   23   19   16
 Reordering of NBOs for storage:    18    9   30   28    5    7   10    1    3   12
 Reordering of NBOs for storage:    15    6   11   14    4   17   29   31   32    8
 Reordering of NBOs for storage:     2   13  307  298  303  292  299  308  306  304
 Reordering of NBOs for storage:   294  305  301  296  297  295  302  293  291  300
 Reordering of NBOs for storage:    97   57   35  101  146  123  232  153  245  267
 Reordering of NBOs for storage:    51  139  179  281  202  279  177  223  257  235
 Reordering of NBOs for storage:   236  258  111   67   80  155  166  190   45  133
 Reordering of NBOs for storage:   119   75   47  135  259  237   78  189  165  159
 Reordering of NBOs for storage:    83  161  225  213  178  280   64  167  191   44
 Reordering of NBOs for storage:   132  108  243  201  210  157  214  218  169  193
 Reordering of NBOs for storage:   203  206  131   43  143  265   39  127   33  121
 Reordering of NBOs for storage:   198  174   55   99  186  288   56  100   79  239
 Reordering of NBOs for storage:   261  284  182  275  220  205  262  240   77  253
 Reordering of NBOs for storage:   194  170   94  222  144  216   34  122   69  113
 Reordering of NBOs for storage:   196  172  207  105   61  215  160   70  114  219
 Reordering of NBOs for storage:   273  251  102   58  162   85  238  260  145  137
 Reordering of NBOs for storage:    49   59  103   81   86  149   36  124  183  285
 Reordering of NBOs for storage:    91  180  282  192  168  204  283  181  266  241
 Reordering of NBOs for storage:   263   87   92  104   89  140   52  217   66  110
 Reordering of NBOs for storage:   154  125   60   62  106  195  171   37  117   73
 Reordering of NBOs for storage:   286  184  247   84  147  244  126   38   46  134
 Reordering of NBOs for storage:   148   96   95  208   50  138  271  136   48   63
 Reordering of NBOs for storage:   107  129   41  151  158  116   72   74  118  227
 Reordering of NBOs for storage:   224   82   88  152   98   90   68  112   54  142
 Reordering of NBOs for storage:    76  120  264  242  164  229  109   65  221  228
 Reordering of NBOs for storage:   230  233  234  246  268  249  269  226  130   42
 Reordering of NBOs for storage:   128   40  150  248  278  254  270  256  250  276
 Reordering of NBOs for storage:   272  274  252  163  188  290  176  200  212  209
 Reordering of NBOs for storage:   289  187  175  199  197  173  185  287  211  156
 Reordering of NBOs for storage:   141   53  115   71   93  231  277  255
 Labels of output orbitals:  CR  CR  CR  CR  CR  CR  CR  CR  CR  BD  BD  BD  LP  LP  BD  BD  BD  BD  BD  BD  
 Labels of output orbitals:  BD  BD  BD  BD  BD  BD  LP  LP  LP  BD  BD  BD  BD* BD* BD* BD* BD* BD* BD* BD* 
 Labels of output orbitals:  BD* BD* BD* BD* BD* BD* BD* BD* BD* BD* RY* RY* RY* RY* RY* RY* RY* RY* RY* RY* 
 Labels of output orbitals:  RY* RY* RY* RY* RY* RY* RY* RY* RY* RY* RY* RY* RY* RY* RY* RY* RY* RY* RY* RY* 
 Labels of output orbitals:  RY* RY* RY* RY* RY* RY* RY* RY* RY* RY* RY* RY* RY* RY* RY* RY* RY* RY* RY* RY* 
 Labels of output orbitals:  RY* RY* RY* RY* RY* RY* RY* RY* RY* RY* RY* RY* RY* RY* RY* RY* RY* RY* RY* RY* 
 Labels of output orbitals:  RY* RY* RY* RY* RY* RY* RY* RY* RY* RY* RY* RY* RY* RY* RY* RY* RY* RY* RY* RY* 
 Labels of output orbitals:  RY* RY* RY* RY* RY* RY* RY* RY* RY* RY* RY* RY* RY* RY* RY* RY* RY* RY* RY* RY* 
 Labels of output orbitals:  RY* RY* RY* RY* RY* RY* RY* RY* RY* RY* RY* RY* RY* RY* RY* RY* RY* RY* RY* RY* 
 Labels of output orbitals:  RY* RY* RY* RY* RY* RY* RY* RY* RY* RY* RY* RY* RY* RY* RY* RY* RY* RY* RY* RY* 
 Labels of output orbitals:  RY* RY* RY* RY* RY* RY* RY* RY* RY* RY* RY* RY* RY* RY* RY* RY* RY* RY* RY* RY* 
 Labels of output orbitals:  RY* RY* RY* RY* RY* RY* RY* RY* RY* RY* RY* RY* RY* RY* RY* RY* RY* RY* RY* RY* 
 Labels of output orbitals:  RY* RY* RY* RY* RY* RY* RY* RY* RY* RY* RY* RY* RY* RY* RY* RY* RY* RY* RY* RY* 
 Labels of output orbitals:  RY* RY* RY* RY* RY* RY* RY* RY* RY* RY* RY* RY* RY* RY* RY* RY* RY* RY* RY* RY* 
 Labels of output orbitals:  RY* RY* RY* RY* RY* RY* RY* RY* RY* RY* RY* RY* RY* RY* RY* RY* RY* RY* RY* RY* 
 Labels of output orbitals:  RY* RY* RY* RY* RY* RY* RY* RY* 
 GSVD:  LWork=       -1280 too small for GESVD, short by        5600 words or        5600 for optimal perf.
 GSVD:  LWork=      -78384 too small for GESVD, short by      385020 words or      385020 for optimal perf.
 Leave Link  607 at Tue Dec  9 21:31:36 2025, MaxMem=  1610612736 cpu:              59.2 elap:               4.9
 (Enter /opt/g16/l9999.exe)
 Update MM charges using Type 7 Charges.
 Unable to Open any file for archive entry.
 1\1\GINC-YARGEREPIC\Scan\RB3LYP\6-311++G(2d,3p)\C6H5N1O2\YARGER\09-Dec
 -2025\0\\#p opt=modredundant b3lyp/6-311++g(2d,3p) guess=save pop=(hir
 shfeld,nbo,savenbos,savecm5) geom=connectivity\\NitroBenzene\\0,1\C,-1
 .1483629182,0.3306969079,-1.8372724511\C,-1.1668634841,0.3362834621,-0
 .4486275901\C,-0.0036227112,0.0023531622,0.2324485814\C,1.1701838519,-
 0.3346505961,-0.4287914944\C,1.1734902593,-0.3357161474,-1.8175000852\
 C,0.017973708,-0.0041870077,-2.5204680368\H,-2.0442253751,0.5877905007
 ,-2.3848308876\H,2.0496732252,-0.5870554971,0.1422818178\H,2.077852142
 2,-0.5952858607,-2.349719073\H,0.0264088791,-0.0066799807,-3.601936573
 7\N,-0.0156742635,0.0056485742,1.7085121569\O,-1.062948535,0.306165816
 1,2.2687052204\O,1.0225535579,-0.2923911501,2.2867919676\H,-2.05538432
 89,0.591479617,0.1069923384\\Version=ES64L-G16RevC.01\State=1-A\HF=-43
 6.8897642,-436.8897266,-436.8896118,-436.8894144,-436.8891277,-436.888
 7456,-436.8882658,-436.8876891,-436.8870226,-436.8862791,-436.8854783,
 -436.884644,-436.8838054,-436.8829871,-436.8822419,-436.8815993,-436.8
 81097,-436.8807728,-436.8806592,-436.8807732,-436.8811,-436.8816077,-4
 36.8822573,-436.8830087,-436.8838307,-436.8846705,-436.8855028,-436.88
 63001,-436.8870384,-436.8876999,-436.8882724,-436.8887493,-436.8891291
 ,-436.8894149,-436.8896118,-436.8897266,-436.8897642\RMSD=7.988e-09,7.
 860e-09,8.541e-09,5.242e-09,7.203e-09,5.867e-09,6.086e-09,6.406e-09,9.
 854e-09,7.860e-09,3.410e-09,4.675e-09,8.878e-09,3.583e-09,9.769e-09,2.
 983e-09,5.123e-09,6.959e-09,3.668e-09,6.132e-09,5.636e-09,2.263e-09,5.
 276e-09,7.052e-09,3.506e-09,4.070e-09,7.655e-09,8.014e-09,6.182e-09,5.
 727e-09,5.497e-09,4.809e-09,8.344e-09,6.188e-09,9.612e-09,7.501e-09,9.
 751e-09\PG=C01 [X(C6H5N1O2)]\\@
 The archive entry for this job was punched.


 IF YOU GET CONFUSED, LOGIC OUT YOUR DILEMMA

           --  PICKER X-RAY CORP.    DIGITAL PRINTER MANUAL CA. 1964
 Job cpu time:       0 days 21 hours 25 minutes  6.4 seconds.
 Elapsed time:       0 days  1 hours 47 minutes 20.0 seconds.
 File lengths (MBytes):  RWF=     65 Int=      0 D2E=      0 Chk=     12 Scr=      1
 Normal termination of Gaussian 16 at Tue Dec  9 21:31:37 2025.
